1099
Properties=species:S:1:pos:R:3 Geometry=T Step:=T 13=T pbc="F F F"
Pt       1.01236718       1.01236662       1.01236684
Pt       0.93393536       0.93393494       4.63566907
Pt       0.92695601       0.92695513       8.47941598
Pt       0.92455914       0.92455853      12.31306912
Pt       0.92694751       0.92694717      16.14672169
Pt       0.93392274       0.93392229      19.99046589
Pt       1.01236053       1.01235987      23.61377653
Pt       0.93393600       4.63566888       0.93393613
Pt       0.80005142       4.67613866       4.67613761
Pt       0.76965794       4.63732618       8.47913670
Pt       0.76538905       4.63253347      12.31306646
Pt       0.76964721       4.63733034      16.14699746
Pt       0.80003381       4.67614192      19.94999677
Pt       0.93392388       4.63567183      23.69221382
Pt       0.92696000       8.47941653       0.92695967
Pt       0.76966247       8.47913871       4.63732439
Pt       0.73242526       8.48196538       8.48196513
Pt       0.72801631       8.47318656      12.31306926
Pt       0.73241985       8.48196779      16.14417141
Pt       0.76964760       8.47913954      19.98880763
Pt       0.92694882       8.47941642      23.69918880
Pt       0.92456695      12.31306962       0.92456668
Pt       0.76539735      12.31306763       4.63252950
Pt       0.72801751      12.31306862       8.47318497
Pt       0.71990841      12.31306925      12.31306983
Pt       0.72801519      12.31306905      16.15295176
Pt       0.76538482      12.31306834      19.99360180
Pt       0.92455634      12.31306927      23.70158149
Pt       0.92695525      16.14672166       0.92695539
Pt       0.76965497      16.14699662       4.63732567
Pt       0.73242023      16.14417138       8.48196554
Pt       0.72801445      16.15295189      12.31306946
Pt       0.73241919      16.14417106      16.14417142
Pt       0.76964615      16.14699849      19.98880728
Pt       0.92694766      16.14672162      23.69919034
Pt       0.93392850      19.99046665       0.93392868
Pt       0.80003949      19.94999607       4.67613889
Pt       0.76964945      19.98880935       8.47913860
Pt       0.76538690      19.99360387      12.31306903
Pt       0.76964844      19.98880842      16.14699853
Pt       0.80003415      19.94999681      19.94999590
Pt       0.93392388      19.99046534      23.69221398
Pt       1.01236362      23.61377345       1.01236384
Pt       0.93392757      23.69220970       4.63567070
Pt       0.92695073      23.69918708       8.47941590
Pt       0.92455852      23.70157930      12.31306902
Pt       0.92694949      23.69918793      16.14672196
Pt       0.93392422      23.69221304      19.99046608
Pt       1.01236143      23.61377553      23.61377626
Pt       4.63566894       0.93393388       0.93393392
Pt       4.67613660       0.80004896       4.67613840
Pt       4.63732578       0.76965626       8.47913694
Pt       4.63253304       0.76538803      12.31306655
Pt       4.63733015       0.76964689      16.14699744
Pt       4.67614295       0.80003405      19.94999665
Pt       4.63567182       0.93392343      23.69221333
Pt       4.67613620       4.67613956       0.80005053
Pt       4.67614240       4.67614105      23.82610260
Pt       4.63732479       8.47913952       0.76966259
Pt       4.63732950       8.47913897      23.85649044
Pt       4.63253080      12.31306771       0.76539836
Pt       4.63253473      12.31306857      23.86075407
Pt       4.63732632      16.14699620       0.76965595
Pt       4.63733018      16.14699875      23.85649219
Pt       4.67613947      19.94999613       0.80004028
Pt       4.67614179      19.94999654      23.82610364
Pt       4.63567077      23.69220902       0.93392809
Pt       4.67614062      23.82609813       4.67613964
Pt       4.63732903      23.85648757       8.47913905
Pt       4.63253464      23.86075006      12.31306888
Pt       4.63732940      23.85648869      16.14699808
Pt       4.67614127      23.82610274      19.94999582
Pt       4.63567186      23.69221293      23.69221325
Pt       8.47941648       0.92695350       0.92695342
Pt       8.47913784       0.76965461       4.63732681
Pt       8.48196583       0.73242094       8.48196603
Pt       8.47318629       0.72801320      12.31306950
Pt       8.48196722       0.73241863      16.14417201
Pt       8.47914049       0.76964983      19.98880859
Pt       8.47941618       0.92695002      23.69918661
Pt       8.47913763       4.63732762       0.76965574
Pt       8.47914046       4.63732859      23.85648733
Pt       8.48196511       8.48196726       0.73242579
Pt       8.48196671       8.48196565      23.89371968
Pt       8.47318512      12.31306900       0.72802053
Pt       8.47318599      12.31306918      23.89812736
Pt       8.48196589      16.14417066       0.73242317
Pt       8.48196642      16.14417180      23.89372185
Pt       8.47913992      19.98880991       0.76965248
Pt       8.47913900      19.98880785      23.85649112
Pt       8.47941637      23.69918453       0.92695305
Pt       8.47914054      23.85648510       4.63732786
Pt       8.48196722      23.89371683       8.48196636
Pt       8.47318639      23.89812279      12.31306891
Pt       8.48196638      23.89371889      16.14417082
Pt       8.47913918      23.85649043      19.98880757
Pt       8.47941592      23.69918842      23.69918867
Pt      12.31306973       0.92456029       0.92456006
Pt      12.31306916       0.76538972       4.63253236
Pt      12.31306932       0.72801431       8.47318584
Pt      12.31306921       0.71990537      12.31306950
Pt      12.31306835       0.72801283      16.15295242
Pt      12.31306776       0.76538767      19.99360392
Pt      12.31306860       0.92455865      23.70157830
Pt      12.31306883       4.63253278       0.76538997
Pt      12.31306834       4.63253419      23.86074908
Pt      12.31306814       8.47318711       0.72801688
Pt      12.31306918       8.47318541      23.89812470
Pt      12.31306865      12.31307009       0.71991098
Pt      12.31306926      12.31306900      23.90623491
Pt      12.31306951      16.15295226       0.72801792
Pt      12.31306881      16.15295191      23.89812772
Pt      12.31306969      19.99360553       0.76539194
Pt      12.31306850      19.99360254      23.86075406
Pt      12.31306952      23.70157450       0.92456320
Pt      12.31306972      23.86074509       4.63253310
Pt      12.31306960      23.89812063       8.47318505
Pt      12.31306918      23.90623072      12.31306797
Pt      12.31306902      23.89812552      16.15295085
Pt      12.31306885      23.86075340      19.99360230
Pt      12.31306864      23.70158045      23.70158062
Pt      16.14672211       0.92695294       0.92695268
Pt      16.14699934       0.76965321       4.63732772
Pt      16.14417241       0.73242179       8.48196593
Pt      16.15295260       0.72801416      12.31306829
Pt      16.14417131       0.73241729      16.14417073
Pt      16.14699738       0.76964764      19.98880883
Pt      16.14672145       0.92694895      23.69918815
Pt      16.14699883       4.63732690       0.76965212
Pt      16.14699749       4.63732967      23.85648861
Pt      16.14417077       8.48196701       0.73242050
Pt      16.14417132       8.48196629      23.89371989
Pt      16.15295157      12.31307039       0.72801696
Pt      16.15295231      12.31306877      23.89812725
Pt      16.14417166      16.14417188       0.73242231
Pt      16.14417187      16.14417105      23.89372232
Pt      16.14699699      19.98880978       0.76965240
Pt      16.14699913      19.98880802      23.85649148
Pt      16.14672196      23.69918389       0.92695368
Pt      16.14699629      23.85648486       4.63732835
Pt      16.14417035      23.89371711       8.48196544
Pt      16.15295190      23.89812440      12.31306820
Pt      16.14417242      23.89372031      16.14417047
Pt      16.14699945      23.85649068      19.98880754
Pt      16.14672152      23.69918857      23.69918873
Pt      19.99046737       0.93393003       0.93393025
Pt      19.94999840       0.80004335       4.67614038
Pt      19.98881059       0.76965549       8.47913867
Pt      19.99360516       0.76539041      12.31306726
Pt      19.98880980       0.76964881      16.14699679
Pt      19.94999731       0.80003497      19.94999613
Pt      19.99046634       0.93392434      23.69221253
Pt      19.94999800       4.67613781       0.80004139
Pt      19.94999689       4.67614144      23.82610139
Pt      19.98880977       8.47913922       0.76965082
Pt      19.98880876       8.47913945      23.85648928
Pt      19.99360421      12.31306955       0.76538927
Pt      19.99360396      12.31306911      23.86075211
Pt      19.98880851      16.14699703       0.76964977
Pt      19.98880951      16.14699848      23.85648922
Pt      19.94999442      19.94999582       0.80003405
Pt      19.94999830      19.94999645      23.82610018
Pt      19.99046570      23.69221274       0.93392437
Pt      19.94999316      23.82610404       4.67614042
Pt      19.98880622      23.85649194       8.47914045
Pt      19.99360314      23.86075169      12.31307129
Pt      19.98881011      23.85648681      16.14699888
Pt      19.94999871      23.82609913      19.94999532
Pt      19.99046642      23.69221081      23.69221086
Pt      23.61377275       1.01236484       1.01236461
Pt      23.69220635       0.93393095       4.63567043
Pt      23.69918268       0.92695493       8.47941584
Pt      23.70157640       0.92456112      12.31306872
Pt      23.69918711       0.92695032      16.14672151
Pt      23.69221258       0.93392487      19.99046609
Pt      23.61377565       1.01236122      23.61377536
Pt      23.69220835       4.63566981       0.93392925
Pt      23.82609491       4.67613786       4.67614081
Pt      23.85648224       4.63732692       8.47913908
Pt      23.86074685       4.63253283      12.31306785
Pt      23.85648812       4.63732825      16.14699746
Pt      23.82610159       4.67614089      19.94999662
Pt      23.69221153       4.63567185      23.69221133
Pt      23.69918622       8.47941642       0.92695138
Pt      23.85648562       8.47913946       4.63732890
Pt      23.89371488       8.48196724       8.48196670
Pt      23.89812200       8.47318681      12.31306845
Pt      23.89371975       8.48196669      16.14417103
Pt      23.85648953       8.47913955      19.98880915
Pt      23.69918661       8.47941673      23.69918667
Pt      23.70157742      12.31306994       0.92456043
Pt      23.86074767      12.31306934       4.63253447
Pt      23.89812027      12.31306947       8.47318579
Pt      23.90622983      12.31306985      12.31306777
Pt      23.89812530      12.31307012      16.15295114
Pt      23.86075167      12.31306975      19.99360378
Pt      23.70157824      12.31306929      23.70157830
Pt      23.69918719      16.14672176       0.92695083
Pt      23.85648857      16.14699604       4.63732910
Pt      23.89371865      16.14416916       8.48196620
Pt      23.89812420      16.15295119      12.31306903
Pt      23.89371899      16.14417242      16.14417150
Pt      23.85648794      16.14699926      19.98880852
Pt      23.69918612      16.14672113      23.69918617
Pt      23.69221456      19.99046544       0.93392304
Pt      23.82610583      19.94999433       4.67614056
Pt      23.85649315      19.98880680       8.47914053
Pt      23.86075206      19.99360339      12.31307182
Pt      23.85648647      19.98880975      16.14699966
Pt      23.82609828      19.94999727      19.94999591
Pt      23.69221005      19.99046548      23.69220975
Pt      23.61377675      23.61377568       1.01236152
Pt      23.69221536      23.69221482       4.63567203
Pt      23.69919011      23.69918962       8.47941651
Pt      23.70157844      23.70157822      12.31306962
Pt      23.69918411      23.69918391      16.14672139
Pt      23.69220900      23.69220848      19.99046551
Pt      23.61377413      23.61377368      23.61377424
Pt       0.82823126       2.80671054       2.80671073
Pt       0.80088666       2.75945726       6.56265541
Pt       0.78911605       2.75106267      10.39373106
Pt       0.78911170       2.75106263      14.23240428
Pt       0.80087546       2.75945499      18.06348108
Pt       0.82822261       2.80670865      21.81942893
Pt       0.80088868       6.56265631       2.75945777
Pt       0.75374967       6.57735000       6.57734900
Pt       0.74047499       6.55224947      10.39365460
Pt       0.74047098       6.55225156      14.23248132
Pt       0.75373699       6.57735304      18.04878567
Pt       0.80087649       6.56265706      21.86668257
Pt       0.78912187      10.39373239       2.75106363
Pt       0.74047876      10.39365501       6.55224752
Pt       0.72417134      10.39499283      10.39499311
Pt       0.72417021      10.39499375      14.23114570
Pt       0.74047028      10.39365625      18.07388663
Pt       0.78911129      10.39373253      21.87507462
Pt       0.78911902      14.23240451       2.75106331
Pt       0.74047526      14.23248105       6.55224785
Pt       0.72416955      14.23114508      10.39499313
Pt       0.72416952      14.23114492      14.23114551
Pt       0.74046948      14.23248146      18.07388657
Pt       0.78911063      14.23240516      21.87507483
Pt       0.80088124      18.06348020       2.75945573
Pt       0.75374029      18.04878569       6.57734982
Pt       0.74047020      18.07388788      10.39365585
Pt       0.74047030      18.07388731      14.23248218
Pt       0.75373672      18.04878585      18.04878571
Pt       0.80087600      18.06348112      21.86668270
Pt       0.82822570      21.81942742       2.80670953
Pt       0.80087908      21.86668185       6.56265599
Pt       0.78911304      21.87507540      10.39373267
Pt       0.78911303      21.87507509      14.23240542
Pt       0.80087734      21.86668265      18.06348095
Pt       0.82822366      21.81942847      21.81942859
Pt      23.79791030       2.80670918       2.80671035
Pt      23.82525430       2.75945603       6.56265680
Pt      23.83702068       2.75106306      10.39373212
Pt      23.83702317       2.75106252      14.23240450
Pt      23.82525974       2.75945484      18.06348065
Pt      23.79791322       2.80670888      21.81942847
Pt      23.82525718       6.56265558       2.75945654
Pt      23.87239459       6.57735060       6.57735181
Pt      23.88566332       6.55225007      10.39365579
Pt      23.88566636       6.55225012      14.23248126
Pt      23.87240032       6.57735151      18.04878599
Pt      23.82525948       6.56265713      21.86668252
Pt      23.83702348      10.39373350       2.75106363
Pt      23.88566377      10.39365713       6.55225069
Pt      23.90196643      10.39499431      10.39499250
Pt      23.90196966      10.39499405      14.23114400
Pt      23.88566930      10.39365660      18.07388745
Pt      23.83702472      10.39373325      21.87507547
Pt      23.83702367      14.23240503       2.75106388
Pt      23.88566492      14.23248064       6.55225031
Pt      23.90196774      14.23114425      10.39499223
Pt      23.90196983      14.23114564      14.23114418
Pt      23.88566845      14.23248308      18.07388726
Pt      23.83702398      14.23240572      21.87507510
Pt      23.82526144      18.06347979       2.75945483
Pt      23.87240227      18.04878351       6.57735135
Pt      23.88566966      18.07388595      10.39365706
Pt      23.88566762      18.07388789      14.23248323
Pt      23.87239811      18.04878698      18.04878602
Pt      23.82525748      18.06348079      21.86668171
Pt      23.79791579      21.81942810       2.80670868
Pt      23.82526339      21.86668249       6.56265668
Pt      23.83702685      21.87507510      10.39373443
Pt      23.83702337      21.87507491      14.23240685
Pt      23.82525651      21.86668179      18.06348056
Pt      23.79791050      21.81942774      21.81942772
Pt       2.80671005       0.82823044       2.80671067
Pt       2.75945689       0.80088582       6.56265545
Pt       2.75106278       0.78911532      10.39373107
Pt       2.75106261       0.78911126      14.23240422
Pt       2.75945535       0.80087517      18.06348084
Pt       2.80670936       0.82822223      21.81942876
Pt       2.80670961      23.79791145       2.80670955
Pt       2.75945583      23.82525815       6.56265612
Pt       2.75106300      23.83702429      10.39373271
Pt       2.75106293      23.83702430      14.23240527
Pt       2.75945502      23.82525989      18.06348075
Pt       2.80670906      23.79791337      21.81942851
Pt       6.56265495       0.80088422       2.75945709
Pt       6.57734930       0.75374538       6.57734993
Pt       6.55224935       0.74047231      10.39365496
Pt       6.55225094       0.74046944      14.23248164
Pt       6.57735325       0.75373732      18.04878588
Pt       6.56265795       0.80087755      21.86668227
Pt       6.56265677      23.82525721       2.75945585
Pt       6.57735209      23.87239741       6.57735104
Pt       6.55225078      23.88566642      10.39365613
Pt       6.55225066      23.88566683      14.23248166
Pt       6.57735179      23.87240036      18.04878531
Pt       6.56265685      23.82526035      21.86668258
Pt      10.39373254       0.78911460       2.75106287
Pt      10.39365568       0.74047252       6.55224942
Pt      10.39499314       0.72416779      10.39499340
Pt      10.39499316       0.72416722      14.23114599
Pt      10.39365582       0.74047070      18.07388778
Pt      10.39373258       0.78911400      21.87507464
Pt      10.39373353      23.83702140       2.75106370
Pt      10.39365724      23.88566371       6.55224968
Pt      10.39499356      23.90196778      10.39499253
Pt      10.39499300      23.90196956      14.23114438
Pt      10.39365585      23.88566921      18.07388639
Pt      10.39373256      23.83702569      21.87507526
Pt      14.23240588       0.78911424       2.75106300
Pt      14.23248258       0.74047261       6.55224952
Pt      14.23114560       0.72416850      10.39499286
Pt      14.23114491       0.72416683      14.23114491
Pt      14.23248077       0.74046903      18.07388758
Pt      14.23240418       0.78911290      21.87507526
Pt      14.23240518      23.83702061       2.75106418
Pt      14.23248154      23.88566298       6.55224933
Pt      14.23114493      23.90196812      10.39499162
Pt      14.23114528      23.90197074      14.23114387
Pt      14.23248233      23.88567010      18.07388628
Pt      14.23240526      23.83702591      21.87507549
Pt      18.06348174       0.80088145       2.75945683
Pt      18.04878736       0.75374372       6.57735106
Pt      18.07388867       0.74047383      10.39365503
Pt      18.07388827       0.74047044      14.23248048
Pt      18.04878627       0.75373640      18.04878532
Pt      18.06348076       0.80087692      21.86668269
Pt      18.06347942      23.82525882       2.75945552
Pt      18.04878348      23.87239968       6.57735119
Pt      18.07388636      23.88566853      10.39365634
Pt      18.07388821      23.88566796      14.23248211
Pt      18.04878765      23.87239968      18.04878497
Pt      18.06348181      23.82525906      21.86668214
Pt      21.81942771       0.82822732       2.80671043
Pt      21.86668089       0.80088332       6.56265673
Pt      21.87507448       0.78911683      10.39373191
Pt      21.87507523       0.78911413      14.23240415
Pt      21.86668317       0.80087732      18.06348029
Pt      21.81942887       0.82822362      21.81942843
Pt      21.81942811      23.79791484       2.80670875
Pt      21.86668196      23.82526257       6.56265674
Pt      21.87507474      23.83702635      10.39373439
Pt      21.87507486      23.83702317      14.23240660
Pt      21.86668246      23.82525643      18.06348026
Pt      21.81942870      23.79791037      21.81942766
Pt       2.80671003       2.80671075       0.82823097
Pt       2.80670929       2.80670848      23.79791439
Pt       2.75945743       6.56265651       0.80088858
Pt       2.75945532       6.56265702      23.82526105
Pt       2.75106448      10.39373250       0.78912200
Pt       2.75106237      10.39373262      23.83702666
Pt       2.75106401      14.23240441       0.78911937
Pt       2.75106252      14.23240529      23.83702731
Pt       2.75945592      18.06348014       0.80088158
Pt       2.75945521      18.06348107      23.82526166
Pt       2.80670949      21.81942733       0.82822594
Pt       2.80670928      21.81942831      23.79791387
Pt       6.56265483       2.75945753       0.80088466
Pt       6.56265786       2.75945476      23.82525936
Pt       6.57734884       6.57735154       0.75374868
Pt       6.57735249       6.57735130      23.87239987
Pt       6.55224833      10.39365611       0.74048026
Pt       6.55225026      10.39365556      23.88566999
Pt       6.55224871      14.23248054       0.74047760
Pt       6.55225052      14.23248220      23.88567102
Pt       6.57735049      18.04878531       0.75374210
Pt       6.57735202      18.04878603      23.87240231
Pt       6.56265651      21.86668135       0.80088017
Pt       6.56265677      21.86668262      23.82526064
Pt      10.39373250       2.75106323       0.78911478
Pt      10.39373273       2.75106260      23.83702299
Pt      10.39365510       6.55225051       0.74047459
Pt      10.39365636       6.55224981      23.88566657
Pt      10.39499219      10.39499410       0.72417342
Pt      10.39499323      10.39499253      23.90197205
Pt      10.39499285      14.23114495       0.72417303
Pt      10.39499300      14.23114550      23.90197337
Pt      10.39365655      18.07388811       0.74047386
Pt      10.39365564      18.07388713      23.88567063
Pt      10.39373344      21.87507461       0.78911593
Pt      10.39373227      21.87507522      23.83702599
Pt      14.23240580       2.75106294       0.78911405
Pt      14.23240436       2.75106281      23.83702392
Pt      14.23248138       6.55224999       0.74047233
Pt      14.23248144       6.55225051      23.88566714
Pt      14.23114414      10.39499453       0.72417117
Pt      14.23114524      10.39499258      23.90197210
Pt      14.23114515      14.23114589       0.72417240
Pt      14.23114518      14.23114493      23.90197366
Pt      14.23248217      18.07388852       0.74047436
Pt      14.23248182      18.07388689      23.88567133
Pt      14.23240527      21.87507426       0.78911663
Pt      14.23240511      21.87507551      23.83702633
Pt      18.06348176       2.75945566       0.80088099
Pt      18.06348076       2.75945521      23.82525969
Pt      18.04878653       6.57735020       0.75374058
Pt      18.04878579       6.57735209      23.87239989
Pt      18.07388755      10.39365712       0.74047209
Pt      18.07388771      10.39365585      23.88566945
Pt      18.07388772      14.23248220       0.74047301
Pt      18.07388811      14.23248172      23.88567017
Pt      18.04878529      18.04878582       0.75373917
Pt      18.04878708      18.04878563      23.87240135
Pt      18.06347971      21.86668194       0.80087837
Pt      18.06348178      21.86668262      23.82525950
Pt      21.81942779       2.80670921       0.82822692
Pt      21.81942872       2.80670885      23.79791297
Pt      21.86668177       6.56265542       0.80088010
Pt      21.86668243       6.56265717      23.82525930
Pt      21.87507483      10.39373337       0.78911383
Pt      21.87507524      10.39373308      23.83702477
Pt      21.87507444      14.23240514       0.78911394
Pt      21.87507533      14.23240547      23.83702433
Pt      21.86668212      18.06348013       0.80087656
Pt      21.86668283      18.06348062      23.82525795
Pt      21.81942825      21.81942822       0.82822246
Pt      21.81942874      21.81942786      23.79791095
Pt       4.68235570       2.76607417       2.76607396
Pt       4.66364935       2.70633064       6.57844342
Pt       4.64212601       2.68655734      10.39429269
Pt       4.64212841       2.68655594      14.23184022
Pt       4.66365503       2.70632527      18.04769092
Pt       4.68236022       2.76606810      21.86006930
Pt       4.66364911       6.57844570       2.70633128
Pt       4.66365460       6.57844663      21.91981245
Pt       4.64212516      10.39429450       2.68655959
Pt       4.64212882      10.39429520      21.93958225
Pt       4.64212624      14.23183962       2.68655823
Pt       4.64212904      14.23184173      21.93958254
Pt       4.66365208      18.04768953       2.70632707
Pt       4.66365413      18.04769140      21.91981284
Pt       4.68235826      21.86006679       2.76607015
Pt       4.66365328      21.91981094       6.57844537
Pt       4.64212890      21.93958215      10.39429606
Pt       4.64212908      21.93958215      14.23184183
Pt       4.66365382      21.91981292      18.04768988
Pt       4.68235935      21.86006971      21.86006944
Pt       8.47861165       2.74022603       2.74022583
Pt       8.48224988       2.66920118       6.56312354
Pt       8.47288288       2.64661758      10.39557050
Pt       8.47288396       2.64661749      14.23056711
Pt       8.48225320       2.66919936      18.06301259
Pt       8.47861408       2.74022357      21.88591392
Pt       8.48224937       6.56312533       2.66920163
Pt       8.48225303       6.56312494      21.95693856
Pt       8.47288186      10.39557160       2.64661915
Pt       8.47288365      10.39557025      21.97952093
Pt       8.47288293      14.23056582       2.64661908
Pt       8.47288350      14.23056698      21.97952124
Pt       8.48225246      18.06301188       2.66920067
Pt       8.48225198      18.06301193      21.95693960
Pt       8.47861362      21.88591262       2.74022503
Pt       8.48225317      21.95693757       6.56312507
Pt       8.47288414      21.97952002      10.39557121
Pt       8.47288319      21.97952023      14.23056627
Pt       8.48225155      21.95693931      18.06301068
Pt       8.47861316      21.88591509      21.88591499
Pt      12.31306875       2.73307483       2.73307480
Pt      12.31306893       2.65609666       6.55075725
Pt      12.31306940       2.63971905      10.39357788
Pt      12.31306874       2.63971868      14.23256039
Pt      12.31306801       2.65609537      18.07538035
Pt      12.31306839       2.73307348      21.89306420
Pt      12.31306810       6.55075842       2.65609682
Pt      12.31306824       6.55075743      21.97004307
Pt      12.31306829      10.39357956       2.63972023
Pt      12.31306854      10.39357700      21.98642090
Pt      12.31306919      14.23256047       2.63972072
Pt      12.31306845      14.23256024      21.98642147
Pt      12.31306959      18.07538001       2.65609754
Pt      12.31306841      18.07537946      21.97004471
Pt      12.31306939      21.89306229       2.73307556
Pt      12.31306941      21.97004085       6.55075745
Pt      12.31306879      21.98641865      10.39357669
Pt      12.31306803      21.98641985      14.23255879
Pt      12.31306816      21.97004421      18.07537847
Pt      12.31306869      21.89306559      21.89306566
Pt      16.14752510       2.74022499       2.74022539
Pt      16.14388686       2.66920065       6.56312521
Pt      16.15325553       2.64661817      10.39557050
Pt      16.15325469       2.64661709      14.23056571
Pt      16.14388497       2.66919845      18.06301226
Pt      16.14752383       2.74022292      21.88591471
Pt      16.14388577       6.56312491       2.66920085
Pt      16.14388474       6.56312522      21.95694007
Pt      16.15325366      10.39557277       2.64661896
Pt      16.15325406      10.39557038      21.97952322
Pt      16.15325370      14.23056720       2.64661940
Pt      16.15325459      14.23056687      21.97952370
Pt      16.14388401      18.06301184       2.66920074
Pt      16.14388660      18.06301239      21.95694128
Pt      16.14752342      21.88591250       2.74022495
Pt      16.14388313      21.95693757       6.56312475
Pt      16.15325282      21.97952079      10.39556995
Pt      16.15325434      21.97952221      14.23056606
Pt      16.14388681      21.95694091      18.06301158
Pt      16.14752529      21.88591561      21.88591565
Pt      19.94377997       2.76607078       2.76607192
Pt      19.96248587       2.70632757       6.57844666
Pt      19.98401096       2.68655692      10.39429469
Pt      19.98401076       2.68655539      14.23184004
Pt      19.96248523       2.70632453      18.04769046
Pt      19.94377898       2.76606806      21.86006921
Pt      19.96248519       6.57844456       2.70632823
Pt      19.96248475       6.57844616      21.91981339
Pt      19.98400965      10.39429650       2.68655741
Pt      19.98401011      10.39429572      21.93958456
Pt      19.98400870      14.23184082       2.68655694
Pt      19.98401083      14.23184284      21.93958448
Pt      19.96248198      18.04768900       2.70632482
Pt      19.96248659      18.04769216      21.91981302
Pt      19.94377680      21.86006902       2.76606778
Pt      19.96248096      21.91981314       6.57844609
Pt      19.98400778      21.93958374      10.39429745
Pt      19.98401043      21.93958362      14.23184390
Pt      19.96248696      21.91981302      18.04769129
Pt      19.94378035      21.86006881      21.86006867
Pt       2.76607386       4.68235763       2.76607448
Pt       2.70632966       4.66365188       6.57844309
Pt       2.68655685       4.64212734      10.39429256
Pt       2.68655567       4.64212930      14.23184018
Pt       2.70632566       4.66365454      18.04769073
Pt       2.76606888       4.68235913      21.86006944
Pt       2.74022792       8.47861268       2.74022787
Pt       2.66920229       8.48225088       6.56312167
Pt       2.64661826       8.47288339      10.39556991
Pt       2.64661800       8.47288503      14.23056634
Pt       2.66919949       8.48225304      18.06301065
Pt       2.74022344       8.47861339      21.88591428
Pt       2.73307699      12.31306805       2.73307668
Pt       2.65609800      12.31306736       6.55075481
Pt       2.63971970      12.31306880      10.39357791
Pt       2.63971966      12.31306939      14.23256011
Pt       2.65609557      12.31306879      18.07537730
Pt       2.73307303      12.31306887      21.89306431
Pt       2.74022592      16.14752351       2.74022578
Pt       2.66920065      16.14388413       6.56312332