1099
Properties=species:S:1:pos:R:3 Geometry=T Step:=T 78=T pbc="F F F"
Pt       0.97521699       0.97521660       0.97521727
Pt       0.89806643       0.89806589       4.60142543
Pt       0.89460424       0.89460360       8.45586828
Pt       0.89330480       0.89330431      12.31306835
Pt       0.89460425       0.89460399      16.17026901
Pt       0.89806607       0.89806602      20.02471248
Pt       0.97521657       0.97521649      23.65092050
Pt       0.89806588       4.60142449       0.89806607
Pt       0.76089769       4.63977746       4.63977806
Pt       0.73345843       4.59864471       8.45336177
Pt       0.72792317       4.58924216      12.31306869
Pt       0.73345847       4.59864475      16.17277597
Pt       0.76089756       4.63977749      19.98636007
Pt       0.89806585       4.60142442      23.72807133
Pt       0.89460360       8.45586781       0.89460372
Pt       0.73345849       8.45336164       4.59864502
Pt       0.70123516       8.45048759       8.45048740
Pt       0.69641041       8.44089361      12.31306888
Pt       0.70123523       8.45048757      16.17565090
Pt       0.73345871       8.45336181      20.02749327
Pt       0.89460430       8.45586803      23.73153301
Pt       0.89330464      12.31306830       0.89330478
Pt       0.72792387      12.31306856       4.58924241
Pt       0.69641124      12.31306898       8.44089331
Pt       0.69457724      12.31306899      12.31306883
Pt       0.69641121      12.31306901      16.18524495
Pt       0.72792392      12.31306871      20.03689598
Pt       0.89330547      12.31306847      23.73283173
Pt       0.89460398      16.17026892       0.89460406
Pt       0.73345882      16.17277528       4.59864482
Pt       0.70123598      16.17565013       8.45048713
Pt       0.69641136      16.18524409      12.31306892
Pt       0.70123625      16.17565019      16.17565121
Pt       0.73345971      16.17277543      20.02749354
Pt       0.89460531      16.17026884      23.73153190
Pt       0.89806474      20.02471206       0.89806485
Pt       0.76089639      19.98635934       4.63977729
Pt       0.73345798      20.02749238       8.45336151
Pt       0.72792309      20.03689510      12.31306897
Pt       0.73345881      20.02749246      16.17277666
Pt       0.76089806      19.98635970      19.98636107
Pt       0.89806644      20.02471230      23.72807080
Pt       0.97521511      23.65092111       0.97521534
Pt       0.89806394      23.72807258       4.60142404
Pt       0.89460252      23.73153402       8.45586729
Pt       0.89330331      23.73283297      12.31306849
Pt       0.89460316      23.73153296      16.17027016
Pt       0.89806520      23.72807091      20.02471399
Pt       0.97521592      23.65092022      23.65092123
Pt       4.60142577       0.89806642       0.89806706
Pt       4.63977842       0.76089830       4.63977814
Pt       4.59864562       0.73345873       8.45336144
Pt       4.58924262       0.72792310      12.31306836
Pt       4.59864473       0.73345849      16.17277573
Pt       4.63977720       0.76089783      19.98635984
Pt       4.60142441       0.89806592      23.72807116
Pt       4.63977826       4.63977742       0.76089816
Pt       4.63977695       4.63977741      23.86523985
Pt       4.59864526       8.45336134       0.73345858
Pt       4.59864394       8.45336162      23.89267897
Pt       4.58924252      12.31306851       0.72792367
Pt       4.58924102      12.31306870      23.89821379
Pt       4.59864509      16.17277559       0.73345890
Pt       4.59864366      16.17277568      23.89267753
Pt       4.63977746      19.98635945       0.76089684
Pt       4.63977635      19.98635994      23.86523861
Pt       4.60142447      23.72807200       0.89806463
Pt       4.63977724      23.86524091       4.63977692
Pt       4.59864442      23.89267952       8.45336094
Pt       4.58924119      23.89821448      12.31306863
Pt       4.59864348      23.89267857      16.17277668
Pt       4.63977616      23.86523898      19.98636133
Pt       4.60142315      23.72807049      23.72807139
Pt       8.45586898       0.89460469       0.89460542
Pt       8.45336227       0.73345939       4.59864544
Pt       8.45048817       0.70123542       8.45048671
Pt       8.44089399       0.69640989      12.31306814
Pt       8.45048755       0.70123477      16.17565030
Pt       8.45336152       0.73345841      20.02749271
Pt       8.45586795       0.89460377      23.73153319
Pt       8.45336219       4.59864472       0.73345915
Pt       8.45336116       4.59864450      23.89267929
Pt       8.45048780       8.45048676       0.70123505
Pt       8.45048652       8.45048701      23.92490297
Pt       8.44089335      12.31306868       0.69641033
Pt       8.44089216      12.31306894      23.92972731
Pt       8.45048716      16.17565080       0.70123545
Pt       8.45048603      16.17565085      23.92490112
Pt       8.45336136      20.02749260       0.73345809
Pt       8.45336070      20.02749319      23.89267716
Pt       8.45586787      23.73153324       0.89460349
Pt       8.45336143      23.89267947       4.59864414
Pt       8.45048716      23.92490235       8.45048607
Pt       8.44089280      23.92972709      12.31306837
Pt       8.45048646      23.92490153      16.17565131
Pt       8.45336086      23.89267739      20.02749425
Pt       8.45586696      23.73153188      23.73153262
Pt      12.31306868       0.89330555       0.89330640
Pt      12.31306871       0.72792400       4.58924293
Pt      12.31306932       0.69641089       8.44089270
Pt      12.31306962       0.69457640      12.31306808
Pt      12.31306955       0.69641035      16.18524401
Pt      12.31306896       0.72792307      20.03689489
Pt      12.31306875       0.89330418      23.73283256
Pt      12.31306874       4.58924207       0.72792390
Pt      12.31306871       4.58924184      23.89821462
Pt      12.31306907       8.44089229       0.69641038
Pt      12.31306901       8.44089269      23.92972760
Pt      12.31306878      12.31306830       0.69457601
Pt      12.31306887      12.31306868      23.93156148
Pt      12.31306858      16.18524491       0.69641003
Pt      12.31306859      16.18524485      23.92972634
Pt      12.31306837      20.03689554       0.72792203
Pt      12.31306838      20.03689607      23.89821286
Pt      12.31306846      23.73283280       0.89330399
Pt      12.31306857      23.89821535       4.58924142
Pt      12.31306898      23.92972738       8.44089196
Pt      12.31306909      23.93156120      12.31306824
Pt      12.31306895      23.92972638      16.18524507
Pt      12.31306863      23.89821279      20.03689677
Pt      12.31306846      23.73283157      23.73283217
Pt      16.17026863       0.89460472       0.89460555
Pt      16.17277540       0.73345886       4.59864529
Pt      16.17565036       0.70123535       8.45048672
Pt      16.18524461       0.69641051      12.31306836
Pt      16.17565082       0.70123539      16.17565013
Pt      16.17277600       0.73345815      20.02749215
Pt      16.17026936       0.89460338      23.73153332
Pt      16.17277556       4.59864456       0.73345903
Pt      16.17277610       4.59864449      23.89267949
Pt      16.17565068       8.45048612       0.70123539
Pt      16.17565129       8.45048668      23.92490234
Pt      16.18524477      12.31306816       0.69641017
Pt      16.18524546      12.31306858      23.92972704
Pt      16.17565076      16.17565092       0.70123458
Pt      16.17565136      16.17565078      23.92490192
Pt      16.17277610      20.02749301       0.73345695
Pt      16.17277644      20.02749337      23.89267834
Pt      16.17026951      23.73153378       0.89460312
Pt      16.17277627      23.89268047       4.59864418
Pt      16.17565125      23.92490281       8.45048621
Pt      16.18524562      23.92972706      12.31306838
Pt      16.17565167      23.92490168      16.17565094
Pt      16.17277667      23.89267807      20.02749390
Pt      16.17027016      23.73153256      23.73153310
Pt      20.02471146       0.89806569       0.89806632
Pt      19.98635893       0.76089685       4.63977744
Pt      20.02749164       0.73345756       8.45336113
Pt      20.03689433       0.72792216      12.31306863
Pt      20.02749194       0.73345771      16.17277590
Pt      19.98635951       0.76089621      19.98635980
Pt      20.02471231       0.89806445      23.72807237
Pt      19.98635921       4.63977699       0.76089732
Pt      19.98635995       4.63977708      23.86524126
Pt      20.02749246       8.45336053       0.73345835
Pt      20.02749315       8.45336117      23.89267944
Pt      20.03689534      12.31306808       0.72792279
Pt      20.03689617      12.31306848      23.89821452
Pt      20.02749281      16.17277615       0.73345769
Pt      20.02749365      16.17277605      23.89267895
Pt      19.98636040      19.98636041       0.76089580
Pt      19.98636101      19.98636061      23.86523992
Pt      20.02471295      23.72807268       0.89806433
Pt      19.98636055      23.86524172       4.63977682
Pt      20.02749340      23.89267961       8.45336106
Pt      20.03689644      23.89821429      12.31306865
Pt      20.02749392      23.89267844      16.17277639
Pt      19.98636115      23.86523945      19.98636108
Pt      20.02471393      23.72807133      23.72807182
Pt      23.65091967       0.97521620       0.97521678
Pt      23.72807104       0.89806509       4.60142475
Pt      23.73153296       0.89460321       8.45586777
Pt      23.73283239       0.89330371      12.31306851
Pt      23.73153297       0.89460318      16.17026925
Pt      23.72807184       0.89806440      20.02471258
Pt      23.65092090       0.97521521      23.65092154
Pt      23.72807104       4.60142397       0.89806572
Pt      23.86524021       4.63977685       4.63977708
Pt      23.89267976       4.59864442       8.45336106
Pt      23.89821520       4.58924193      12.31306879
Pt      23.89267971       4.59864451      16.17277625
Pt      23.86524108       4.63977698      19.98636021
Pt      23.72807234       4.60142382      23.72807276
Pt      23.73153281       8.45586699       0.89460434
Pt      23.89267919       8.45336058       4.59864446
Pt      23.92490255       8.45048631       8.45048664
Pt      23.92972716       8.44089245      12.31306893
Pt      23.92490215       8.45048657      16.17565104
Pt      23.89267928       8.45336111      20.02749300
Pt      23.73153343       8.45586738      23.73153362
Pt      23.73283228      12.31306798       0.89330494
Pt      23.89821456      12.31306827       4.58924185
Pt      23.92972718      12.31306856       8.44089268
Pt      23.93156082      12.31306856      12.31306896
Pt      23.92972654      12.31306862      16.18524511
Pt      23.89821426      12.31306856      20.03689581
Pt      23.73283240      12.31306835      23.73283245
Pt      23.73153298      16.17026946       0.89460415
Pt      23.89267939      16.17277629       4.59864440
Pt      23.92490226      16.17565124       8.45048663
Pt      23.92972672      16.18524510      12.31306895
Pt      23.92490162      16.17565101      16.17565117
Pt      23.89267849      16.17277621      20.02749332
Pt      23.73153266      16.17026935      23.73153267
Pt      23.72807214      20.02471287       0.89806488
Pt      23.86524092      19.98636051       4.63977687
Pt      23.89267924      20.02749331       8.45336125
Pt      23.89821415      20.03689589      12.31306897
Pt      23.89267829      20.02749316      16.17277659
Pt      23.86523935      19.98636056      19.98636089
Pt      23.72807123      20.02471301      23.72807129
Pt      23.65092137      23.65092135       0.97521554
Pt      23.72807239      23.72807236       4.60142388
Pt      23.73153320      23.73153294       8.45586738
Pt      23.73283223      23.73283177      12.31306859
Pt      23.73153255      23.73153208      16.17026986
Pt      23.72807122      23.72807086      20.02471363
Pt      23.65092105      23.65092071      23.65092116
Pt       0.79165938       2.77015686       2.77015741
Pt       0.76379195       2.72214162       6.53100363
Pt       0.75145627       2.71183798      10.37995868
Pt       0.75145616       2.71183807      14.24617828
Pt       0.76379153       2.72214208      18.09513400
Pt       0.79165819       2.77015689      21.85597992
Pt       0.76379175       6.53100303       2.72214182
Pt       0.71653399       6.54188885       6.54188908
Pt       0.70509918       6.51402364      10.37833772
Pt       0.70509925       6.51402362      14.24780018
Pt       0.71653409       6.54188887      18.08424934
Pt       0.76379090       6.53100301      21.90399489
Pt       0.75145642      10.37995852       2.71183822
Pt       0.70509977      10.37833788       6.51402370
Pt       0.69431559      10.37441521      10.37441486
Pt       0.69431554      10.37441515      14.25172303
Pt       0.70509987      10.37833797      18.11211486
Pt       0.75145550      10.37995868      21.91429832
Pt       0.75145649      14.24617801       2.71183844
Pt       0.70510028      14.24779977       6.51402351
Pt       0.69431619      14.25172272      10.37441475
Pt       0.69431614      14.25172276      14.25172314
Pt       0.70510055      14.24779990      18.11211504
Pt       0.75145594      14.24617825      21.91429817
Pt       0.76379093      18.09513346       2.72214202
Pt       0.71653403      18.08424833       6.54188860
Pt       0.70509982      18.11211377      10.37833766
Pt       0.70510008      18.11211380      14.24780046
Pt       0.71653505      18.08424850      18.08424999
Pt       0.76379157      18.09513386      21.90399481
Pt       0.79165684      21.85597997       2.77015654
Pt       0.76378996      21.90399518       6.53100277
Pt       0.75145494      21.91429891      10.37995862
Pt       0.75145515      21.91429878      14.24617887
Pt       0.76379093      21.90399466      18.09513520
Pt       0.79165767      21.85598014      21.85598095
Pt      23.83447897       2.77015695       2.77015714
Pt      23.86234653       2.72214216       6.53100269
Pt      23.87468237       2.71183862      10.37995845
Pt      23.87468249       2.71183875      14.24617856
Pt      23.86234732       2.72214241      18.09513437
Pt      23.83448078       2.77015678      21.85598014
Pt      23.86234594       6.53100226       2.72214206
Pt      23.90960378       6.54188776       6.54188804
Pt      23.92103862       6.51402261      10.37833741
Pt      23.92103838       6.51402271      14.24780038
Pt      23.90960381       6.54188804      18.08424943
Pt      23.86234746       6.53100244      21.90399482
Pt      23.87468139      10.37995790       2.71183833
Pt      23.92103829      10.37833693       6.51402281
Pt      23.93182234      10.37441417      10.37441455
Pt      23.93182202      10.37441421      14.25172327
Pt      23.92103772      10.37833729      18.11211485
Pt      23.87468249      10.37995833      21.91429829
Pt      23.87468168      14.24617825       2.71183834
Pt      23.92103829      14.24780019       6.51402273
Pt      23.93182225      14.25172311      10.37441453
Pt      23.93182193      14.25172304      14.25172335
Pt      23.92103750      14.24780015      18.11211500
Pt      23.87468233      14.24617849      21.91429820
Pt      23.86234692      18.09513439       2.72214227
Pt      23.90960374      18.08424977       6.54188806
Pt      23.92103784      18.11211513      10.37833751
Pt      23.92103742      18.11211499      14.24780045
Pt      23.90960261      18.08424952      18.08424976
Pt      23.86234654      18.09513467      21.90399454
Pt      23.83448099      21.85598010       2.77015674
Pt      23.86234744      21.90399478       6.53100254
Pt      23.87468227      21.91429834      10.37995864
Pt      23.87468186      21.91429829      14.24617896
Pt      23.86234615      21.90399456      18.09513509
Pt      23.83447991      21.85598039      21.85598059
Pt       2.77015741       0.79165950       2.77015770
Pt       2.72214247       0.76379204       6.53100350
Pt       2.71183863       0.75145617      10.37995853
Pt       2.71183841       0.75145603      14.24617818
Pt       2.72214215       0.76379155      18.09513391
Pt       2.77015709       0.79165834      21.85597997
Pt       2.77015627      23.83447993       2.77015649
Pt       2.72214150      23.86234701       6.53100250
Pt       2.71183755      23.87468209      10.37995838
Pt       2.71183736      23.87468184      14.24617878
Pt       2.72214136      23.86234597      18.09513522
Pt       2.77015612      23.83447901      21.85598133
Pt       6.53100389       0.76379220       2.72214305
Pt       6.54188978       0.71653470       6.54188879
Pt       6.51402428       0.70509922      10.37833706
Pt       6.51402377       0.70509896      14.24779967
Pt       6.54188855       0.71653411      18.08424893
Pt       6.53100300       0.76379146      21.90399514
Pt       6.53100278      23.86234700       2.72214196
Pt       6.54188870      23.90960385       6.54188779
Pt       6.51402301      23.92103825      10.37833694
Pt       6.51402249      23.92103789      14.24780026
Pt       6.54188756      23.90960231      18.08425021
Pt       6.53100220      23.86234494      21.90399618
Pt      10.37995892       0.75145655       2.71184006
Pt      10.37833822       0.70510019       6.51402340
Pt      10.37441564       0.69431511      10.37441402
Pt      10.37441558       0.69431472      14.25172230
Pt      10.37833800       0.70509919      18.11211401
Pt      10.37995875       0.75145573      21.91429878
Pt      10.37995838      23.87468270       2.71183870
Pt      10.37833761      23.92103833       6.51402223
Pt      10.37441476      23.93182244      10.37441377
Pt      10.37441458      23.93182212      14.25172294
Pt      10.37833724      23.92103674      18.11211539
Pt      10.37995832      23.87468015      21.91430007
Pt      14.24617820       0.75145618       2.71184025
Pt      14.24779995       0.70510005       6.51402335
Pt      14.25172326       0.69431540      10.37441412
Pt      14.25172352       0.69431531      14.25172234
Pt      14.24780048       0.70509951      18.11211376
Pt      14.24617849       0.75145540      21.91429834
Pt      14.24617847      23.87468349       2.71183880
Pt      14.24780023      23.92103889       6.51402225
Pt      14.25172349      23.93182263      10.37441385
Pt      14.25172361      23.93182219      14.25172285
Pt      14.24780047      23.92103708      18.11211517
Pt      14.24617864      23.87468079      21.91429987
Pt      18.09513346       0.76379102       2.72214339
Pt      18.08424827       0.71653387       6.54188837
Pt      18.11211380       0.70509904      10.37833725
Pt      18.11211400       0.70509923      14.24779983
Pt      18.08424887       0.71653377      18.08424871
Pt      18.09513393       0.76379008      21.90399448
Pt      18.09513468      23.86234842       2.72214251
Pt      18.08424963      23.90960454       6.54188785
Pt      18.11211541      23.92103819      10.37833710
Pt      18.11211569      23.92103767      14.24780002
Pt      18.08425025      23.90960266      18.08424971
Pt      18.09513506      23.86234605      21.90399559
Pt      21.85597913       0.79165754       2.77015750
Pt      21.90399395       0.76379029       6.53100279
Pt      21.91429751       0.75145452      10.37995846
Pt      21.91429739       0.75145439      14.24617846
Pt      21.90399381       0.76378955      18.09513419
Pt      21.85597932       0.79165596      21.85598001
Pt      21.85598044      23.83448135       2.77015682
Pt      21.90399496      23.86234762       6.53100250
Pt      21.91429873      23.87468224      10.37995852
Pt      21.91429883      23.87468183      14.24617878
Pt      21.90399508      23.86234621      18.09513503
Pt      21.85598064      23.83447991      21.85598091
Pt       2.77015723       2.77015703       0.79165978
Pt       2.77015711       2.77015682      23.83447900
Pt       2.72214183       6.53100292       0.76379207
Pt       2.72214230       6.53100293      23.86234650
Pt       2.71183817      10.37995843       0.75145658
Pt       2.71183880      10.37995865      23.87468196
Pt       2.71183842      14.24617809       0.75145664
Pt       2.71183895      14.24617832      23.87468141
Pt       2.72214214      18.09513360       0.76379122
Pt       2.72214257      18.09513396      23.86234561
Pt       2.77015644      21.85597983       0.79165720
Pt       2.77015650      21.85598025      23.83447932
Pt       6.53100386       2.72214227       0.76379237
Pt       6.53100286       2.72214188      23.86234591
Pt       6.54188953       6.54188843       0.71653430
Pt       6.54188790       6.54188854      23.90960368
Pt       6.51402394      10.37833742       0.70509938
Pt       6.51402224      10.37833772      23.92103828
Pt       6.51402364      14.24780001       0.70509981
Pt       6.51402198      14.24780014      23.92103727
Pt       6.54188887      18.08424884       0.71653420
Pt       6.54188741      18.08424905      23.90960165
Pt       6.53100281      21.90399465       0.76379022
Pt       6.53100218      21.90399509      23.86234509
Pt      10.37995893       2.71183919       0.75145678
Pt      10.37995862       2.71183800      23.87468157
Pt      10.37833805       6.51402284       0.70509970
Pt      10.37833740       6.51402297      23.92103863
Pt      10.37441500      10.37441418       0.69431484
Pt      10.37441442      10.37441457      23.93182308
Pt      10.37441459      14.25172296       0.69431496
Pt      10.37441410      14.25172308      23.93182218
Pt      10.37833736      18.11211468       0.70509924
Pt      10.37833690      18.11211473      23.92103649
Pt      10.37995829      21.91429810       0.75145446
Pt      10.37995819      21.91429931      23.87468032
Pt      14.24617825       2.71183939       0.75145652
Pt      14.24617844       2.71183826      23.87468188
Pt      14.24780006       6.51402260       0.70509986
Pt      14.24780038       6.51402285      23.92103835
Pt      14.25172305      10.37441379       0.69431500
Pt      14.25172349      10.37441435      23.93182259
Pt      14.25172291      14.25172277       0.69431466
Pt      14.25172337      14.25172290      23.93182227
Pt      14.24779990      18.11211485       0.70509855
Pt      14.24780015      18.11211475      23.92103716
Pt      14.24617840      21.91429811       0.75145364
Pt      14.24617850      21.91429931      23.87468106
Pt      18.09513352       2.72214280       0.76379140
Pt      18.09513402       2.72214222      23.86234722
Pt      18.08424868       6.54188781       0.71653428
Pt      18.08424946       6.54188817      23.90960383
Pt      18.11211443      10.37833667       0.70509937
Pt      18.11211524      10.37833732      23.92103803
Pt      18.11211458      14.24779989       0.70509896
Pt      18.11211544      14.24779996      23.92103793
Pt      18.08424928      18.08424955       0.71653298
Pt      18.08425000      18.08424936      23.90960305
Pt      18.09513466      21.90399453       0.76378882
Pt      18.09513499      21.90399513      23.86234639
Pt      21.85597931       2.77015713       0.79165796
Pt      21.85597954       2.77015677      23.83448124
Pt      21.90399473       6.53100230       0.76379128
Pt      21.90399458       6.53100251      23.86234777
Pt      21.91429882      10.37995783       0.75145591
Pt      21.91429832      10.37995832      23.87468273
Pt      21.91429884      14.24617818       0.75145550
Pt      21.91429835      14.24617839      23.87468262
Pt      21.90399491      18.09513437       0.76379012
Pt      21.90399467      18.09513461      23.86234692
Pt      21.85598045      21.85598004       0.79165588
Pt      21.85598054      21.85598058      23.83448029
Pt       4.64520421       2.72809445       2.72809467
Pt       4.62333190       2.66612443       6.54152766
Pt       4.59424521       2.64046036      10.37913734
Pt       4.59424495       2.64046027      14.24699985
Pt       4.62333132       2.66612436      18.08460998
Pt       4.64520378       2.72809421      21.89804256
Pt       4.62333160       6.54152739       2.66612429
Pt       4.62333102       6.54152728      21.96001207
Pt       4.59424482      10.37913742       2.64046052
Pt       4.59424422      10.37913748      21.98567529
Pt       4.59424479      14.24699964       2.64046104
Pt       4.59424413      14.24700012      21.98567501
Pt       4.62333130      18.08460938       2.66612517
Pt       4.62333077      18.08461026      21.96001167
Pt       4.64520328      21.89804227       2.72809467
Pt       4.62333114      21.96001230       6.54152732
Pt       4.59424433      21.98567637      10.37913746
Pt       4.59424401      21.98567639      14.24700031
Pt       4.62333059      21.96001232      18.08461096
Pt       4.64520302      21.89804273      21.89804302
Pt       8.45196819       2.69920199       2.69920229
Pt       8.44991917       2.62555163       6.51716272
Pt       8.42862963       2.59430115      10.37291729
Pt       8.42862941       2.59430062      14.25321991
Pt       8.44991869       2.62555057      18.10897507
Pt       8.45196795       2.69920093      21.92693594
Pt       8.44991898       6.51716244       2.62555145
Pt       8.44991851       6.51716234      22.00058634
Pt       8.42862921      10.37291750       2.59430130
Pt       8.42862880      10.37291759      22.03183588
Pt       8.42862891      14.25322007       2.59430168
Pt       8.42862858      14.25322058      22.03183561
Pt       8.44991842      18.10897486       2.62555223
Pt       8.44991819      18.10897574      22.00058586
Pt       8.45196744      21.92693509       2.69920218
Pt       8.44991847      22.00058567       6.51716235
Pt       8.42862884      22.03183634      10.37291734
Pt       8.42862868      22.03183669      14.25322046
Pt       8.44991824      22.00058651      18.10897614
Pt       8.45196754      21.92693625      21.92693641
Pt      12.31306841       2.68852942       2.68852972
Pt      12.31306880       2.60569898       6.49933911
Pt      12.31306913       2.57738990      10.36529724
Pt      12.31306919       2.57738931      14.26083981
Pt      12.31306894       2.60569766      18.12679837
Pt      12.31306848       2.68852802      21.93760897
Pt      12.31306888       6.49933871       2.60569865
Pt      12.31306897       6.49933878      22.02043973
Pt      12.31306897      10.36529713       2.57738953
Pt      12.31306912      10.36529735      22.04874827
Pt      12.31306869      14.26083983       2.57738974
Pt      12.31306877      14.26084030      22.04874804
Pt      12.31306841      18.12679859       2.60569913
Pt      12.31306837      18.12679936      22.02043932
Pt      12.31306813      21.93760806       2.68852922
Pt      12.31306839      22.02043866       6.49933873
Pt      12.31306858      22.04874810      10.36529735
Pt      12.31306858      22.04874864      14.26084038
Pt      12.31306844      22.02043987      18.12679963
Pt      12.31306819      21.93760963      21.93760967
Pt      16.17416889       2.69920276       2.69920285
Pt      16.17621856       2.62555253       6.51716247
Pt      16.19750840       2.59430229      10.37291730
Pt      16.19750848       2.59430209      14.25321996
Pt      16.17621876       2.62555189      18.10897480
Pt      16.17416893       2.69920180      21.92693539
Pt      16.17621888       6.51716221       2.62555193
Pt      16.17621905       6.51716242      22.00058582
Pt      16.19750881      10.37291696       2.59430133
Pt      16.19750901      10.37291720      22.03183565
Pt      16.19750879      14.25321977       2.59430147
Pt      16.19750891      14.25322009      22.03183540
Pt      16.17621905      18.10897505       2.62555233
Pt      16.17621898      18.10897570      22.00058542
Pt      16.17416950      21.92693459       2.69920257
Pt      16.17621912      22.00058506       6.51716237
Pt      16.19750899      22.03183548      10.37291737
Pt      16.19750905      22.03183584      14.25322039
Pt      16.17621919      22.00058589      18.10897594
Pt      16.17416939      21.92693591      21.92693588
Pt      19.98093308       2.72809526       2.72809511
Pt      20.00280551       2.66612548       6.54152701
Pt      20.03189209       2.64046172      10.37913731
Pt      20.03189209       2.64046195      14.24700009
Pt      20.00280560       2.66612583      18.08461009
Pt      19.98093317       2.72809501      21.89804232
Pt      20.00280594       6.54152688       2.66612480
Pt      20.00280611       6.54152724      21.96001179
Pt      20.03189289      10.37913681       2.64046061
Pt      20.03189311      10.37913709      21.98567520
Pt      20.03189306      14.24699970       2.64046086
Pt      20.03189337      14.24699992      21.98567494
Pt      20.00280671      18.08461019       2.66612553
Pt      20.00280690      18.08461074      21.96001124
Pt      19.98093445      21.89804169       2.72809537
Pt      20.00280696      21.96001149       6.54152717
Pt      20.03189367      21.98567537      10.37913746
Pt      20.03189381      21.98567550      14.24700039
Pt      20.00280711      21.96001173      18.08461098
Pt      19.98093449      21.89804243      21.89804235
Pt       2.72809386       4.64520402       2.72809425
Pt       2.66612405       4.62333163       6.54152766
Pt       2.64046019       4.59424508      10.37913738
Pt       2.64046031       4.59424497      14.24699978
Pt       2.66612465       4.62333139      18.08460993
Pt       2.72809484       4.64520351      21.89804237
Pt       2.69920070       8.45196789       2.69920100
Pt       2.62555053       8.44991901       6.51716272
Pt       2.59430065       8.42862957      10.37291757
Pt       2.59430091       8.42862945      14.25321986
Pt       2.62555158       8.44991890      18.10897506
Pt       2.69920209       8.45196781      21.92693520
Pt       2.68852791      12.31306826       2.68852815
Pt       2.60569773      12.31306881       6.49933912
Pt       2.57738934      12.31306895      10.36529748
Pt       2.57738970      12.31306889      14.26083969
Pt       2.60569893      12.31306891      18.12679869
Pt       2.68852916      12.31306852      21.93760813
Pt       2.69920145      16.17416861       2.69920158
Pt       2.62555162      16.17621831       6.51716259