1099
Properties=species:S:1:pos:R:3 Geometry=T Step:=T 61=T pbc="F F F"
Pt       0.77474292       0.77474413       0.77474380
Pt       0.63895437       0.63895543       4.39130349
Pt       0.59467362       0.59467476       8.33313007
Pt       0.57859205       0.57859331      12.31306890
Pt       0.59467389       0.59467500      16.29300768
Pt       0.63895456       0.63895559      20.23483425
Pt       0.77474287       0.77474398      23.85139384
Pt       0.63895456       4.39130375       0.63895536
Pt       0.35930497       4.43586046       4.43586040
Pt       0.27583289       4.34603425       8.35315087
Pt       0.25602436       4.31955441      12.31306890
Pt       0.27583328       4.34603428      16.27298694
Pt       0.35930534       4.43586054      20.19027740
Pt       0.63895471       4.39130349      23.98718213
Pt       0.59467404       8.33313036       0.59467477
Pt       0.27583299       8.35315102       4.34603422
Pt       0.15208680       8.33947716       8.33947684
Pt       0.11874567       8.31791886      12.31306880
Pt       0.15208731       8.33947694      16.28666086
Pt       0.27583372       8.35315087      20.28010374
Pt       0.59467437       8.33312987      24.03146246
Pt       0.57859277      12.31306901       0.57859348
Pt       0.25602462      12.31306903       4.31955442
Pt       0.11874574      12.31306914       8.31791852
Pt       0.08431441      12.31306907      12.31306864
Pt       0.11874620      12.31306895      16.30821896
Pt       0.25602528      12.31306879      20.30658369
Pt       0.57859290      12.31306857      24.04754387
Pt       0.59467469      16.29300755       0.59467533
Pt       0.27583364      16.27298699       4.34603424
Pt       0.15208742      16.28666099       8.33947669
Pt       0.11874616      16.30821923      12.31306862
Pt       0.15208770      16.28666098      16.28666080
Pt       0.27583412      16.27298681      20.28010394
Pt       0.59467461      16.29300747      24.03146228
Pt       0.63895541      20.23483391       0.63895605
Pt       0.35930587      20.19027733       4.43586035
Pt       0.27583384      20.28010365       8.35315064
Pt       0.25602519      20.30658361      12.31306866
Pt       0.27583397      20.28010381      16.27298685
Pt       0.35930601      20.19027757      20.19027779
Pt       0.63895512      20.23483430      23.98718185
Pt       0.77474385      23.85139276       0.77474457
Pt       0.63895534      23.98718144       4.39130341
Pt       0.59467471      24.03146210       8.33312972
Pt       0.57859301      24.04754374      12.31306848
Pt       0.59467455      24.03146223      16.29300748
Pt       0.63895508      23.98718169      20.23483447
Pt       0.77474317      23.85139354      23.85139364
Pt       4.39130267       0.63895548       0.63895532
Pt       4.43585969       0.35930558       4.43586016
Pt       4.34603338       0.27583330       8.35315084
Pt       4.31955347       0.25602461      12.31306880
Pt       4.34603332       0.27583339      16.27298681
Pt       4.43585946       0.35930539      20.19027749
Pt       4.39130231       0.63895506      23.98718270
Pt       4.43585992       4.43586035       0.35930567
Pt       4.43585941       4.43586031      24.26683230
Pt       4.34603387       8.35315104       0.27583355
Pt       4.34603313       8.35315084      24.35030398
Pt       4.31955411      12.31306904       0.25602513
Pt       4.31955315      12.31306880      24.37011239
Pt       4.34603392      16.27298696       0.27583417
Pt       4.34603298      16.27298684      24.35030350
Pt       4.43585994      20.19027739       0.35930650
Pt       4.43585921      20.19027783      24.26683148
Pt       4.39130294      23.98718133       0.63895615
Pt       4.43585978      24.26683108       4.43586018
Pt       4.34603353      24.35030321       8.35315059
Pt       4.31955355      24.37011194      12.31306857
Pt       4.34603327      24.35030326      16.27298675
Pt       4.43585934      24.26683128      20.19027785
Pt       4.39130228      23.98718200      23.98718210
Pt       8.33312968       0.59467488       0.59467471
Pt       8.35315064       0.27583348       4.34603358
Pt       8.33947674       0.15208670       8.33947654
Pt       8.31791850       0.11874513      12.31306856
Pt       8.33947655       0.15208643      16.28666079
Pt       8.35315030       0.27583277      20.28010393
Pt       8.33312926       0.59467389      24.03146386
Pt       8.35315074       4.34603389       0.27583369
Pt       8.35315021       4.34603373      24.35030495
Pt       8.33947698       8.33947709       0.15208730
Pt       8.33947634       8.33947671      24.47405110
Pt       8.31791882      12.31306917       0.11874609
Pt       8.31791813      12.31306895      24.50739216
Pt       8.33947690      16.28666108       0.15208788
Pt       8.33947628      16.28666118      24.47405051
Pt       8.35315064      20.28010373       0.27583446
Pt       8.35315029      20.28010443      24.35030384
Pt       8.33312980      24.03146192       0.59467566
Pt       8.35315056      24.35030313       4.34603385
Pt       8.33947671      24.47404946       8.33947638
Pt       8.31791846      24.50739093      12.31306834
Pt       8.33947653      24.47404972      16.28666068
Pt       8.35315040      24.35030351      20.28010419
Pt       8.33312937      24.03146291      24.03146289
Pt      12.31306883       0.57859341       0.57859320
Pt      12.31306886       0.25602490       4.31955360
Pt      12.31306908       0.11874533       8.31791804
Pt      12.31306915       0.08431329      12.31306834
Pt      12.31306895       0.11874485      16.30821895
Pt      12.31306870       0.25602376      20.30658388
Pt      12.31306858       0.57859201      24.04754579
Pt      12.31306890       4.31955395       0.25602514
Pt      12.31306865       4.31955373      24.37011403
Pt      12.31306918       8.31791872       0.11874602
Pt      12.31306878       8.31791839      24.50739290
Pt      12.31306931      12.31306914       0.08431472
Pt      12.31306883      12.31306896      24.54182438
Pt      12.31306909      16.30821939       0.11874644
Pt      12.31306869      16.30821950      24.50739234
Pt      12.31306883      20.30658359       0.25602571
Pt      12.31306860      20.30658443      24.37011292
Pt      12.31306884      24.04754359       0.57859404
Pt      12.31306880      24.37011188       4.31955401
Pt      12.31306898      24.50739084       8.31791797
Pt      12.31306904      24.54182255      12.31306816
Pt      12.31306885      24.50739118      16.30821881
Pt      12.31306867      24.37011247      20.30658407
Pt      12.31306864      24.04754481      24.04754476
Pt      16.29300771       0.59467488       0.59467475
Pt      16.27298690       0.27583346       4.34603351
Pt      16.28666114       0.15208667       8.33947635
Pt      16.30821952       0.11874506      12.31306843
Pt      16.28666117       0.15208629      16.28666082
Pt      16.27298698       0.27583259      20.28010406
Pt      16.29300777       0.59467376      24.03146401
Pt      16.27298694       4.34603381       0.27583372
Pt      16.27298702       4.34603354      24.35030526
Pt      16.28666119       8.33947690       0.15208740
Pt      16.28666114       8.33947656      24.47405166
Pt      16.30821956      12.31306909       0.11874614
Pt      16.30821942      12.31306887      24.50739291
Pt      16.28666111      16.28666112       0.15208772
Pt      16.28666104      16.28666117      24.47405134
Pt      16.27298692      20.28010371       0.27583410
Pt      16.27298684      20.28010450      24.35030454
Pt      16.29300763      24.03146230       0.59467536
Pt      16.27298689      24.35030353       4.34603390
Pt      16.28666100      24.47404974       8.33947627
Pt      16.30821938      24.50739117      12.31306822
Pt      16.28666101      24.47405011      16.28666062
Pt      16.27298682      24.35030405      20.28010417
Pt      16.29300776      24.03146342      24.03146339
Pt      20.23483419       0.63895530       0.63895535
Pt      20.19027731       0.35930537       4.43585993
Pt      20.28010379       0.27583300       8.35315042
Pt      20.30658377       0.25602421      12.31306863
Pt      20.28010393       0.27583294      16.27298696
Pt      20.19027760       0.35930495      20.19027777
Pt      20.23483450       0.63895471      23.98718304
Pt      20.19027733       4.43586005       0.35930571
Pt      20.19027767       4.43585984      24.26683294
Pt      20.28010377       8.35315069       0.27583366
Pt      20.28010405       8.35315048      24.35030509
Pt      20.30658362      12.31306896       0.25602515
Pt      20.30658395      12.31306875      24.37011388
Pt      20.28010362      16.27298719       0.27583389
Pt      20.28010407      16.27298710      24.35030501
Pt      20.19027716      20.19027752       0.35930598
Pt      20.19027769      20.19027813      24.26683268
Pt      20.23483395      23.98718203       0.63895574
Pt      20.19027712      24.26683178       4.43586019
Pt      20.28010357      24.35030379       8.35315033
Pt      20.30658362      24.37011249      12.31306843
Pt      20.28010387      24.35030397      16.27298677
Pt      20.19027760      24.26683220      20.19027788
Pt      20.23483456      23.98718285      23.98718286
Pt      23.85139344       0.77474375       0.77474392
Pt      23.98718229       0.63895498       4.39130309
Pt      24.03146325       0.59467421       8.33312965
Pt      24.04754493       0.57859261      12.31306864
Pt      24.03146319       0.59467432      16.29300774
Pt      23.98718246       0.63895498      20.23483460
Pt      23.85139412       0.77474333      23.85139436
Pt      23.98718203       4.39130314       0.63895538
Pt      24.26683207       4.43585998       4.43585989
Pt      24.35030452       4.34603371       8.35315036
Pt      24.37011329       4.31955382      12.31306863
Pt      24.35030447       4.34603362      16.27298699
Pt      24.26683237       4.43585988      20.19027775
Pt      23.98718264       4.39130299      23.98718288
Pt      24.03146262       8.33312993       0.59467482
Pt      24.35030417       8.35315063       4.34603351
Pt      24.47405096       8.33947671       8.33947617
Pt      24.50739249       8.31791838      12.31306839
Pt      24.47405112       8.33947654      16.28666084
Pt      24.35030467       8.35315048      20.28010400
Pt      24.03146357       8.33312964      24.03146370
Pt      24.04754401      12.31306901       0.57859339
Pt      24.37011270      12.31306897       4.31955366
Pt      24.50739220      12.31306903       8.31791774
Pt      24.54182414      12.31306896      12.31306815
Pt      24.50739254      12.31306885      16.30821889
Pt      24.37011354      12.31306875      20.30658384
Pt      24.04754541      12.31306864      24.04754551
Pt      24.03146235      16.29300802       0.59467505
Pt      24.35030389      16.27298727       4.34603364
Pt      24.47405058      16.28666127       8.33947610
Pt      24.50739217      16.30821953      12.31306821
Pt      24.47405098      16.28666122      16.28666069
Pt      24.35030464      16.27298712      20.28010405
Pt      24.03146371      16.29300780      24.03146386
Pt      23.98718171      20.23483455       0.63895563
Pt      24.26683165      20.19027770       4.43586008
Pt      24.35030385      20.28010410       8.35315029
Pt      24.37011262      20.30658412      12.31306842
Pt      24.35030405      20.28010436      16.27298678
Pt      24.26683218      20.19027812      20.19027788
Pt      23.98718274      20.23483483      23.98718303
Pt      23.85139288      23.85139350       0.77474434
Pt      23.98718170      23.98718227       4.39130319
Pt      24.03146237      24.03146286       8.33312942
Pt      24.04754408      24.04754455      12.31306827
Pt      24.03146273      24.03146312      16.29300748
Pt      23.98718230      23.98718267      20.23483464
Pt      23.85139415      23.85139453      23.85139453
Pt       0.54464195       2.54508554       2.54508541
Pt       0.43688203       2.42499635       6.37350498
Pt       0.40160823       2.37944352      10.32612688
Pt       0.40160840       2.37944359      14.30001089
Pt       0.43688242       2.42499646      18.25263284
Pt       0.54464211       2.54508549      22.08105240
Pt       0.43688219       6.37350515       2.42499638
Pt       0.23492991       6.38145937       6.38145920
Pt       0.17802663       6.32310829      10.32989215
Pt       0.17802690       6.32310824      14.29624561
Pt       0.23493053       6.38145924      18.24467862
Pt       0.43688270       6.37350497      22.20114150
Pt       0.40160856      10.32612707       2.37944363
Pt       0.17802668      10.32989242       6.32310812
Pt       0.10052660      10.31626478      10.31626437
Pt       0.10052686      10.31626464      14.30987310
Pt       0.17802740      10.32989216      18.30302965
Pt       0.40160912      10.32612673      22.24669440
Pt       0.40160893      14.30001094       2.37944372
Pt       0.17802704      14.29624575       6.32310809
Pt       0.10052691      14.30987344      10.31626425
Pt       0.10052710      14.30987339      14.30987303
Pt       0.17802760      14.29624558      18.30302968
Pt       0.40160928      14.30001067      22.24669444
Pt       0.43688300      18.25263266       2.42499651
Pt       0.23493071      18.24467856       6.38145913
Pt       0.17802737      18.30302973      10.32989192
Pt       0.17802749      18.30302978      14.29624542
Pt       0.23493103      18.24467867      18.24467870
Pt       0.43688310      18.25263270      22.20114165
Pt       0.54464281      22.08105201       2.54508548
Pt       0.43688301      22.20114122       6.37350481
Pt       0.40160915      22.24669412      10.32612654
Pt       0.40160911      22.24669418      14.30001064
Pt       0.43688298      22.20114138      18.25263287
Pt       0.54464247      22.08105240      22.08105266
Pt      24.08149468       2.54508499       2.54508502
Pt      24.18925497       2.42499580       6.37350448
Pt      24.22452897       2.37944289      10.32612652
Pt      24.22452891       2.37944284      14.30001081
Pt      24.18925494       2.42499569      18.25263309
Pt      24.08149506       2.54508474      22.08105295
Pt      24.18925461       6.37350468       2.42499578
Pt      24.39120747       6.38145887       6.38145860
Pt      24.44811113       6.32310772      10.32989170
Pt      24.44811111       6.32310765      14.29624542
Pt      24.39120757       6.38145870      18.24467885
Pt      24.18925514       6.37350444      22.20114204
Pt      24.22452831      10.32612684       2.37944288
Pt      24.44811088      10.32989216       6.32310733
Pt      24.52561155      10.31626448      10.31626374
Pt      24.52561168      10.31626437      14.30987282
Pt      24.44811125      10.32989195      18.30302982
Pt      24.22452924      10.32612656      22.24669495
Pt      24.22452815      14.30001110       2.37944300
Pt      24.44811069      14.29624585       6.32310734
Pt      24.52561134      14.30987354      10.31626363
Pt      24.52561155      14.30987346      14.30987273
Pt      24.44811120      14.29624565      18.30302979
Pt      24.22452929      14.30001085      22.24669496
Pt      24.18925430      18.25263313       2.42499598
Pt      24.39120705      18.24467893       6.38145868
Pt      24.44811063      18.30303017      10.32989151
Pt      24.44811076      18.30303022      14.29624520
Pt      24.39120745      18.24467908      18.24467876
Pt      24.18925522      18.25263323      22.20114212
Pt      24.08149423      22.08105260       2.54508524
Pt      24.18925430      22.20114184       6.37350452
Pt      24.22452814      22.24669485      10.32612630
Pt      24.22452829      22.24669501      14.30001052
Pt      24.18925466      22.20114221      18.25263293
Pt      24.08149508      22.08105316      22.08105305
Pt       2.54508453       0.54464285       2.54508531
Pt       2.42499542       0.43688279       6.37350495
Pt       2.37944242       0.40160901      10.32612688
Pt       2.37944245       0.40160913      14.30001081
Pt       2.42499540       0.43688301      18.25263282
Pt       2.54508427       0.54464279      22.08105250
Pt       2.54508484      24.08149401       2.54508540
Pt       2.42499578      24.18925395       6.37350477
Pt       2.37944285      24.22452781      10.32612652
Pt       2.37944275      24.22452788      14.30001059
Pt       2.42499552      24.18925406      18.25263286
Pt       2.54508430      24.08149450      22.08105268
Pt       6.37350445       0.43688290       2.42499595
Pt       6.38145877       0.23493021       6.38145897
Pt       6.32310765       0.17802660      10.32989200
Pt       6.32310757       0.17802660      14.29624543
Pt       6.38145852       0.23493005      18.24467869
Pt       6.37350399       0.43688238      22.20114183
Pt       6.37350455      24.18925381       2.42499626
Pt       6.38145886      24.39120625       6.38145893
Pt       6.32310772      24.44810971      10.32989176
Pt       6.32310760      24.44810977      14.29624526
Pt       6.38145855      24.39120642      18.24467870
Pt       6.37350411      24.18925437      22.20114185
Pt      10.32612672       0.40160919       2.37944292
Pt      10.32989216       0.17802680       6.32310756
Pt      10.31626462       0.10052602      10.31626400
Pt      10.31626452       0.10052581      14.30987291
Pt      10.32989195       0.17802619      18.30302984
Pt      10.32612643       0.40160811      22.24669497
Pt      10.32612670      24.22452763       2.37944342
Pt      10.32989209      24.44810963       6.32310766
Pt      10.31626451      24.52560993      10.31626379
Pt      10.31626441      24.52561011      14.30987278
Pt      10.32989191      24.44810997      18.30302979
Pt      10.32612648      24.22452848      22.24669482
Pt      14.30001089       0.40160920       2.37944289
Pt      14.29624572       0.17802679       6.32310750
Pt      14.30987360       0.10052601      10.31626392
Pt      14.30987356       0.10052576      14.30987285
Pt      14.29624564       0.17802611      18.30302987
Pt      14.30001084       0.40160805      22.24669509
Pt      14.30001085      24.22452782       2.37944341
Pt      14.29624563      24.44810980       6.32310764
Pt      14.30987351      24.52561005      10.31626373
Pt      14.30987347      24.52561026      14.30987269
Pt      14.29624553      24.44811022      18.30302976
Pt      14.30001080      24.22452874      22.24669491
Pt      18.25263274       0.43688284       2.42499583
Pt      18.24467865       0.23493010       6.38145872
Pt      18.30302998       0.17802644      10.32989176
Pt      18.30303003       0.17802636      14.29624538
Pt      18.24467882       0.23492977      18.24467885
Pt      18.25263303       0.43688214      22.20114215
Pt      18.25263263      24.18925437       2.42499621
Pt      18.24467844      24.39120674       6.38145884
Pt      18.30302978      24.44811009      10.32989157
Pt      18.30302985      24.44811023      14.29624517
Pt      18.24467866      24.39120708      18.24467869
Pt      18.25263292      24.18925510      22.20114209
Pt      22.08105225       0.54464259       2.54508506
Pt      22.20114156       0.43688244       6.37350452
Pt      22.24669464       0.40160853      10.32612653
Pt      22.24669471       0.40160858      14.30001080
Pt      22.20114180       0.43688247      18.25263308
Pt      22.08105272       0.54464232      22.08105298
Pt      22.08105198      24.08149468       2.54508530
Pt      22.20114126      24.18925461       6.37350455
Pt      22.24669429      24.22452838      10.32612630
Pt      22.24669449      24.22452851      14.30001054
Pt      22.20114173      24.18925488      18.25263293
Pt      22.08105272      24.08149536      22.08105300
Pt       2.54508467       2.54508553       0.54464276
Pt       2.54508428       2.54508534      24.08149501
Pt       2.42499580       6.37350514       0.43688285
Pt       2.42499533       6.37350491      24.18925457
Pt       2.37944308      10.32612707       0.40160918
Pt       2.37944238      10.32612674      24.22452811
Pt       2.37944320      14.30001092       0.40160953
Pt       2.37944237      14.30001066      24.22452795
Pt       2.42499602      18.25263266       0.43688358
Pt       2.42499531      18.25263275      24.18925417
Pt       2.54508491      22.08105205       0.54464352
Pt       2.54508423      22.08105254      24.08149468
Pt       6.37350451       2.42499613       0.43688290
Pt       6.37350396       2.42499592      24.18925538
Pt       6.38145902       6.38145928       0.23493050
Pt       6.38145842       6.38145897      24.39120753
Pt       6.32310809      10.32989244       0.17802713
Pt       6.32310733      10.32989214      24.44811068
Pt       6.32310808      14.29624577       0.17802748
Pt       6.32310728      14.29624563      24.44811039
Pt       6.38145902      18.24467862       0.23493126
Pt       6.38145836      18.24467892      24.39120679
Pt       6.37350460      22.20114133       0.43688379
Pt       6.37350407      22.20114189      24.18925452
Pt      10.32612674       2.37944318       0.40160920
Pt      10.32612638       2.37944276      24.22452968
Pt      10.32989226       6.32310804       0.17802722
Pt      10.32989182       6.32310767      24.44811150
Pt      10.31626482      10.31626475       0.10052695
Pt      10.31626423      10.31626445      24.52561175
Pt      10.31626475      14.30987355       0.10052723
Pt      10.31626416      14.30987349      24.52561143
Pt      10.32989218      18.30302985       0.17802783
Pt      10.32989176      18.30303028      24.44811065
Pt      10.32612673      22.24669422       0.40161001
Pt      10.32612645      22.24669501      24.22452863
Pt      14.30001091       2.37944316       0.40160922
Pt      14.30001084       2.37944262      24.22452977
Pt      14.29624577       6.32310798       0.17802725
Pt      14.29624559       6.32310759      24.44811172
Pt      14.30987370      10.31626467       0.10052699
Pt      14.30987339      10.31626441      24.52561209
Pt      14.30987366      14.30987352       0.10052721
Pt      14.30987335      14.30987343      24.52561184
Pt      14.29624568      18.30302986       0.17802767
Pt      14.29624548      18.30303027      24.44811105
Pt      14.30001086      22.24669425       0.40160983
Pt      14.30001079      22.24669514      24.22452892
Pt      18.25263276       2.42499597       0.43688295
Pt      18.25263307       2.42499554      24.18925568
Pt      18.24467867       6.38145903       0.23493059
Pt      18.24467890       6.38145867      24.39120816
Pt      18.30302995      10.32989223       0.17802723
Pt      18.30303008      10.32989197      24.44811166
Pt      18.30302990      14.29624579       0.17802739
Pt      18.30303005      14.29624563      24.44811156
Pt      18.24467852      18.24467873       0.23493088
Pt      18.24467879      18.24467905      24.39120789
Pt      18.25263266      22.20114150       0.43688335
Pt      18.25263296      22.20114227      24.18925530
Pt      22.08105226       2.54508507       0.54464283
Pt      22.08105278       2.54508469      24.08149549
Pt      22.20114153       6.37350472       0.43688298
Pt      22.20114194       6.37350444      24.18925548
Pt      22.24669445      10.32612684       0.40160930
Pt      22.24669494      10.32612656      24.22452950
Pt      22.24669433      14.30001109       0.40160944
Pt      22.24669494      14.30001085      24.22452954
Pt      22.20114132      18.25263307       0.43688323
Pt      22.20114195      18.25263322      24.18925556
Pt      22.08105200      22.08105249       0.54464317
Pt      22.08105280      22.08105315      24.08149555
Ag       4.46832060       4.46832062       4.46832075
Ag       4.38077591       4.38077588       8.38129445
Ag       4.35201703       4.35201711      12.31306874
Ag       4.38077585       4.38077610      16.24484319
Ag       4.46832027       4.46832093      20.15781706
Ag       4.38077608       8.38129451       4.38077605
Ag       4.26339115       8.36879918       8.36879908
Ag       4.22545829       8.34954669      12.31306880
Ag       4.26339097       8.36879925      16.25733870
Ag       4.38077563       8.38129468      20.24536196
Ag       4.35201726      12.31306901       4.35201723
Ag       4.22545837      12.31306914       8.34954651
Ag       4.18186170      12.31306917      12.31306877
Ag       4.22545811      12.31306913      16.27659125
Ag       4.35201669      12.31306904      20.27412093
Ag       4.38077602      16.24484348       4.38077611
Ag       4.26339110      16.25733900       8.36879903
Ag       4.22545818      16.27659156      12.31306880
Ag       4.26339084      16.25733898      16.25733880
Ag       4.38077551      16.24484345      20.24536216
Ag       4.46832045      20.15781718       4.46832075
Ag       4.38077585      20.24536197       8.38129439
Ag       4.35201697      20.27412086      12.31306877
Ag       4.38077572      20.24536202      16.24484341
Ag       4.46832014      20.15781726      20.15781745
Ag       8.38129451       4.38077574       4.38077580
Ag       8.36879927       4.26339067       8.36879887
Ag       8.34954674       4.22545789      12.31306853
Ag       8.36879911       4.26339079      16.25733847
Ag       8.38129417       4.38077599      20.24536179
Ag       8.36879937       8.36879911       4.26339082
Ag       8.34566864       8.34566835       8.34566804
Ag       8.32134376       8.32134353      12.31306859
Ag       8.34566844       8.34566835      16.28046942
Ag       8.36879892       8.36879924      20.36274704
Ag       8.34954688      12.31306909       4.22545807
Ag       8.32134379      12.31306927       8.32134316
Ag       8.29542693      12.31306932      12.31306854
Ag       8.32134355      12.31306927      16.30479427
Ag       8.34954637      12.31306918      20.40067995
Ag       8.36879918      16.25733894       4.26339098
Ag       8.34566845      16.28046991       8.34566805
Ag       8.32134358      16.30479486      12.31306859
Ag       8.34566827      16.28047002      16.28046952
Ag       8.36879883      16.25733905      20.36274724
Ag       8.38129427      20.24536190       4.38077603
Ag       8.36879903      20.36274705       8.36879890
Ag       8.34954657      20.40068001      12.31306862
Ag       8.36879897      20.36274727      16.25733868
Ag       8.38129411      20.24536223      20.24536215
Ag      12.31306894       4.35201685       4.35201679
Ag      12.31306908       4.22545783       8.34954610
Ag      12.31306913       4.18186122      12.31306836
Ag      12.31306900       4.22545787      16.27659094
Ag      12.31306879       4.35201696      20.27412070
Ag      12.31306918       8.34954651       4.22545785
Ag      12.31306926       8.32134346       8.32134297
Ag      12.31306926       8.29542668      12.31306838
Ag      12.31306908       8.32134344      16.30479416
Ag      12.31306884       8.34954660      20.40067982
Ag      12.31306928      12.31306908       4.18186130
Ag      12.31306931      12.31306927       8.29542612
Ag      12.31306928      12.31306932      12.31306831
Ag      12.31306907      12.31306927      16.33071092
Ag      12.31306882      12.31306918      20.44427652
Ag      12.31306908      16.27659145       4.22545804
Ag      12.31306914      16.30479475       8.32134301
Ag      12.31306914      16.33071167      12.31306839
Ag      12.31306895      16.30479488      16.30479423
Ag      12.31306873      16.27659167      20.40068001
Ag      12.31306883      20.27412071       4.35201713
Ag      12.31306896      20.40067983       8.34954625
Ag      12.31306902      20.44427659      12.31306847
Ag      12.31306887      20.40068016      16.27659110
Ag      12.31306869      20.27412121      20.27412098
Ag      16.24484327       4.38077572       4.38077562
Ag      16.25733877       4.26339071       8.36879863
Ag      16.27659139       4.22545789      12.31306845
Ag      16.25733878       4.26339068      16.25733856
Ag      16.24484333       4.38077573      20.24536192
Ag      16.25733887       8.36879895       4.26339063
Ag      16.28046977       8.34566821       8.34566778
Ag      16.30479466       8.32134339      12.31306841
Ag      16.28046967       8.34566818      16.28046938
Ag      16.25733872       8.36879899      20.36274701
Ag      16.27659152      12.31306899       4.22545788
Ag      16.30479470      12.31306915       8.32134289
Ag      16.33071154      12.31306920      12.31306830
Ag      16.30479455      12.31306913      16.30479414
Ag      16.27659124      12.31306907      20.40067985
Ag      16.25733885      16.25733889       4.26339082
Ag      16.28046971      16.28046981       8.34566784
Ag      16.30479460      16.30479475      12.31306840
Ag      16.28046958      16.28046992      16.28046940
Ag      16.25733859      16.25733907      20.36274714
Ag      16.24484328      20.24536183       4.38077595
Ag      16.25733875      20.36274694       8.36879877
Ag      16.27659131      20.40067994      12.31306853
Ag      16.25733864      20.36274729      16.25733864
Ag      16.24484315      20.24536237      20.24536214
Ag      20.15781689       4.46832044       4.46832034
Ag      20.24536172       4.38077575       8.38129402
Ag      20.27412063       4.35201690      12.31306858
Ag      20.24536173       4.38077573      16.24484334
Ag      20.15781705       4.46832039      20.15781729
Ag      20.24536179       8.38129424       4.38077559
Ag      20.36274690       8.36879893       8.36879855
Ag      20.40067976       8.34954643      12.31306846
Ag      20.36274688       8.36879890      16.25733863
Ag      20.24536180       8.38129424      20.24536196
Ag      20.27412072      12.31306891       4.35201677
Ag      20.40067982      12.31306902       8.34954596
Ag      20.44427648      12.31306906      12.31306831
Ag      20.40067979      12.31306900      16.27659102
Ag      20.27412071      12.31306894      20.27412081
Ag      20.24536176      16.24484352       4.38077577
Ag      20.36274690      16.25733898       8.36879862
Ag      20.40067980      16.27659156      12.31306844
Ag      20.36274692      16.25733904      16.25733860
Ag      20.24536180      16.24484366      20.24536204