1099
Properties=species:S:1:pos:R:3 Geometry=T Step:=T 69=T pbc="F F F"
Pt       0.92002559       0.92002504       0.92002562
Pt       0.84066892       0.84066827       4.54354941
Pt       0.84046703       0.84046624       8.41313070
Pt       0.83905332       0.83905255      12.31306856
Pt       0.84046665       0.84046596      16.21300651
Pt       0.84066861       0.84066796      20.08258797
Pt       0.92002533       0.92002452      23.70611180
Pt       0.84066826       4.54354850       0.84066835
Pt       0.70729916       4.58265000       4.58265057
Pt       0.66884281       4.52351518       8.40909250
Pt       0.65435643       4.50616684      12.31306866
Pt       0.66884261       4.52351525      16.21704498
Pt       0.70729909       4.58264996      20.04348715
Pt       0.84066833       4.54354845      23.78546906
Pt       0.84046583       8.41312976       0.84046586
Pt       0.66884216       8.40909172       4.52351544
Pt       0.60832184       8.39406388       8.39406452
Pt       0.56922903       8.37086973      12.31306877
Pt       0.60832181       8.39406402      16.23207316
Pt       0.66884228       8.40909192      20.10262235
Pt       0.84046607       8.41313005      23.78567154
Pt       0.83905198      12.31306801       0.83905194
Pt       0.65435537      12.31306805       4.50616670
Pt       0.56922841      12.31306809       8.37087021
Pt       0.51916393      12.31306814      12.31306890
Pt       0.56922856      12.31306821      16.25526761
Pt       0.65435567      12.31306827      20.11997103
Pt       0.83905235      12.31306828      23.78708530
Pt       0.84046537      16.21300645       0.84046530
Pt       0.66884155      16.21704477       4.52351503
Pt       0.60832098      16.23207277       8.39406437
Pt       0.56922817      16.25526710      12.31306892
Pt       0.60832115      16.23207288      16.23207343
Pt       0.66884180      16.21704493      20.10262263
Pt       0.84046576      16.21300666      23.78567183
Pt       0.84066731      20.08258842       0.84066734
Pt       0.70729792      20.04348745       4.58264977
Pt       0.66884132      20.10262243       8.40909221
Pt       0.65435501      20.11997105      12.31306886
Pt       0.66884143      20.10262251      16.21704547
Pt       0.70729805      20.04348751      20.04348778
Pt       0.84066748      20.08258854      23.78546985
Pt       0.92002387      23.70611347       0.92002406
Pt       0.84066698      23.78547035       4.54354858
Pt       0.84046482      23.78567255       8.41313031
Pt       0.83905138      23.78708603      12.31306878
Pt       0.84046493      23.78567247      16.21300732
Pt       0.84066707      23.78547015      20.08258907
Pt       0.92002391      23.70611313      23.70611327
Pt       4.54354959       0.84066825       0.84066875
Pt       4.58265067       0.70729919       4.58265068
Pt       4.52351594       0.66884271       8.40909245
Pt       4.50616753       0.65435620      12.31306860
Pt       4.52351585       0.66884235      16.21704489
Pt       4.58265054       0.70729883      20.04348691
Pt       4.54354943       0.84066790      23.78546868
Pt       4.58265037       4.58264998       0.70729892
Pt       4.58265024       4.58264977      23.91883852
Pt       4.52351531       8.40909171       0.66884186
Pt       4.52351521       8.40909191      23.95729553
Pt       4.50616671      12.31306810       0.65435509
Pt       4.50616654      12.31306840      23.97178214
Pt       4.52351505      16.21704479       0.66884130
Pt       4.52351474      16.21704501      23.95729593
Pt       4.58264966      20.04348746       0.70729774
Pt       4.58264927      20.04348750      23.91883962
Pt       4.54354862      23.78547044       0.84066695
Pt       4.58264959      23.91883998       4.58264974
Pt       4.52351471      23.95729664       8.40909221
Pt       4.50616611      23.97178303      12.31306884
Pt       4.52351448      23.95729672      16.21704551
Pt       4.58264920      23.91884002      20.04348796
Pt       4.54354834      23.78547023      23.78547054
Pt       8.41313101       0.84046606       0.84046660
Pt       8.40909260       0.66884223       4.52351593
Pt       8.39406475       0.60832188       8.39406457
Pt       8.37087060       0.56922888      12.31306869
Pt       8.39406482       0.60832157      16.23207291
Pt       8.40909271       0.66884198      20.10262175
Pt       8.41313115       0.84046572      23.78567079
Pt       8.40909250       4.52351519       0.66884191
Pt       8.40909259       4.52351491      23.95729555
Pt       8.39406457       8.39406386       0.60832096
Pt       8.39406460       8.39406398      24.01781666
Pt       8.37087031      12.31306815       0.56922771
Pt       8.37087028      12.31306843      24.05690984
Pt       8.39406446      16.23207271       0.60832025
Pt       8.39406423      16.23207293      24.01781740
Pt       8.40909214      20.10262227       0.66884049
Pt       8.40909186      20.10262232      23.95729734
Pt       8.41313046      23.78567302       0.84046432
Pt       8.40909214      23.95729725       4.52351487
Pt       8.39406438      24.01781794       8.39406432
Pt       8.37087009      24.05691087      12.31306886
Pt       8.39406416      24.01781828      16.23207345
Pt       8.40909185      23.95729772      20.10262289
Pt       8.41313025      23.78567305      23.78567353
Pt      12.31306902       0.83905220       0.83905278
Pt      12.31306886       0.65435526       4.50616756
Pt      12.31306897       0.56922838       8.37087043
Pt      12.31306909       0.51916384      12.31306883
Pt      12.31306908       0.56922837      16.25526721
Pt      12.31306904       0.65435536      20.11997005
Pt      12.31306918       0.83905198      23.78708435
Pt      12.31306887       4.50616677       0.65435506
Pt      12.31306896       4.50616648      23.97178226
Pt      12.31306890       8.37086961       0.56922768
Pt      12.31306899       8.37086973      24.05690994
Pt      12.31306888      12.31306814       0.51916266
Pt      12.31306906      12.31306845      24.10697493
Pt      12.31306888      16.25526695       0.56922685
Pt      12.31306899      16.25526714      24.05691089
Pt      12.31306881      20.11997080       0.65435345
Pt      12.31306891      20.11997072      23.97178451
Pt      12.31306896      23.78708696       0.83905042
Pt      12.31306892      23.97178428       4.50616639
Pt      12.31306909      24.05691134       8.37087014
Pt      12.31306914      24.10697609      12.31306889
Pt      12.31306909      24.05691177      16.25526766
Pt      12.31306898      23.97178486      20.11997133
Pt      12.31306906      23.78708710      23.78708763
Pt      16.21300701       0.84046569       0.84046631
Pt      16.21704515       0.66884139       4.52351602
Pt      16.23207317       0.60832092       8.39406468
Pt      16.25526744       0.56922810      12.31306880
Pt      16.23207312       0.60832101      16.23207284
Pt      16.21704511       0.66884149      20.10262145
Pt      16.21300697       0.84046536      23.78567092
Pt      16.21704517       4.52351518       0.66884122
Pt      16.21704511       4.52351492      23.95729623
Pt      16.23207313       8.39406375       0.60832016
Pt      16.23207314       8.39406392      24.01781758
Pt      16.25526734      12.31306807       0.56922680
Pt      16.25526756      12.31306848      24.05691085
Pt      16.23207322      16.23207277       0.60831928
Pt      16.23207355      16.23207301      24.01781838
Pt      16.21704546      20.10262238       0.66883954
Pt      16.21704581      20.10262226      23.95729824
Pt      16.21300745      23.78567354       0.84046386
Pt      16.21704564      23.95729815       4.52351489
Pt      16.23207360      24.01781879       8.39406439
Pt      16.25526789      24.05691169      12.31306891
Pt      16.23207378      24.01781912      16.23207340
Pt      16.21704595      23.95729853      20.10262276
Pt      16.21300780      23.78567353      23.78567396
Pt      20.08258811       0.84066761       0.84066816
Pt      20.04348680       0.70729796       4.58265083
Pt      20.10262158       0.66884129       8.40909258
Pt      20.11996989       0.65435483      12.31306874
Pt      20.10262145       0.66884114      16.21704482
Pt      20.04348665       0.70729769      20.04348651
Pt      20.08258809       0.84066704      23.78546917
Pt      20.04348700       4.58265012       0.70729777
Pt      20.04348699       4.58264978      23.91883993
Pt      20.10262209       8.40909160       0.66884059
Pt      20.10262211       8.40909174      23.95729732
Pt      20.11997072      12.31306798       0.65435359
Pt      20.11997081      12.31306839      23.97178410
Pt      20.10262243      16.21704482       0.66883974
Pt      20.10262265      16.21704512      23.95729780
Pt      20.04348784      20.04348751       0.70729625
Pt      20.04348802      20.04348744      23.91884128
Pt      20.08258901      23.78547123       0.84066612
Pt      20.04348795      23.91884136       4.58264969
Pt      20.10262271      23.95729823       8.40909220
Pt      20.11997115      23.97178477      12.31306887
Pt      20.10262281      23.95729838      16.21704551
Pt      20.04348810      23.91884152      20.04348782
Pt      20.08258926      23.78547120      23.78547146
Pt      23.70611238       0.92002505       0.92002559
Pt      23.78546958       0.84066780       4.54354985
Pt      23.78567146       0.84046593       8.41313097
Pt      23.78708520       0.83905221      12.31306874
Pt      23.78567177       0.84046552      16.21300635
Pt      23.78546983       0.84066721      20.08258737
Pt      23.70611258       0.92002415      23.70611176
Pt      23.78547017       4.54354876       0.84066773
Pt      23.91883983       4.58265029       4.58265083
Pt      23.95729653       4.52351548       8.40909264
Pt      23.97178312       4.50616715      12.31306874
Pt      23.95729694       4.52351543      16.21704488
Pt      23.91884027       4.58265005      20.04348681
Pt      23.78547047       4.54354846      23.78546996
Pt      23.78567273       8.41312954       0.84046524
Pt      23.95729712       8.40909157       4.52351579
Pt      24.01781784       8.39406371       8.39406475
Pt      24.05691087       8.37086953      12.31306885
Pt      24.01781826       8.39406381      16.23207296
Pt      23.95729758       8.40909169      20.10262197
Pt      23.78567308       8.41312978      23.78567260
Pt      23.78708688      12.31306777       0.83905106
Pt      23.97178427      12.31306794       4.50616712
Pt      24.05691147      12.31306801       8.37087056
Pt      24.10697622      12.31306808      12.31306903
Pt      24.05691163      12.31306823      16.25526741
Pt      23.97178442      12.31306827      20.11997061
Pt      23.78708696      12.31306825      23.78708644
Pt      23.78567343      16.21300648       0.84046435
Pt      23.95729805      16.21704488       4.52351526
Pt      24.01781889      16.23207291       8.39406458
Pt      24.05691179      16.25526719      12.31306903
Pt      24.01781890      16.23207309      16.23207331
Pt      23.95729809      16.21704514      20.10262230
Pt      23.78567340      16.21300690      23.78567288
Pt      23.78547126      20.08258836       0.84066633
Pt      23.91884138      20.04348751       4.58264973
Pt      23.95729836      20.10262231       8.40909223
Pt      23.97178490      20.11997073      12.31306894
Pt      23.95729837      20.10262231      16.21704551
Pt      23.91884142      20.04348747      20.04348763
Pt      23.78547137      20.08258846      23.78547091
Pt      23.70611408      23.70611381       0.92002352
Pt      23.78547147      23.78547116       4.54354876
Pt      23.78567383      23.78567340       8.41313048
Pt      23.78708753      23.78708703      12.31306896
Pt      23.78567384      23.78567337      16.21300733
Pt      23.78547155      23.78547111      20.08258874
Pt      23.70611406      23.70611350      23.70611366
Pt       0.73722717       2.71453370       2.71453428
Pt       0.70328910       2.66080982       6.47634391
Pt       0.68657342       2.64266391      10.35685924
Pt       0.68657327       2.64266387      14.26927803
Pt       0.70328889       2.66080964      18.14979355
Pt       0.73722709       2.71453339      21.91160332
Pt       0.70328845       6.47634303       2.66081000
Pt       0.65390645       6.48058013       6.48058073
Pt       0.61995900       6.43123132      10.34963165
Pt       0.61995890       6.43123140      14.27650581
Pt       0.65390636       6.48058026      18.14555699
Pt       0.70328852       6.47634317      21.96532770
Pt       0.68657228      10.35685848       2.64266372
Pt       0.61995831      10.34963093       6.43123163
Pt       0.55210682      10.34089724      10.34089798
Pt       0.55210685      10.34089731      14.28523975
Pt       0.61995846      10.34963113      18.19490616
Pt       0.68657250      10.35685871      21.98347384
Pt       0.68657211      14.26927774       2.64266347
Pt       0.61995794      14.27650529       6.43123145
Pt       0.55210636      14.28523912      10.34089795
Pt       0.55210646      14.28523917      14.28523989
Pt       0.61995820      14.27650547      18.19490632
Pt       0.68657232      14.26927792      21.98347397
Pt       0.70328778      18.14979373       2.66080918
Pt       0.65390530      18.14555689       6.48058031
Pt       0.61995774      18.19490596      10.34963170
Pt       0.61995784      18.19490600      14.27650610
Pt       0.65390551      18.14555702      18.14555739
Pt       0.70328785      18.14979382      21.96532814
Pt       0.73722608      21.91160427       2.71453305
Pt       0.70328747      21.96532834       6.47634321
Pt       0.68657164      21.98347427      10.35685908
Pt       0.68657163      21.98347428      14.26927852
Pt       0.70328746      21.96532825      18.14979435
Pt       0.73722588      21.91160411      21.91160429
Pt      23.88891108       2.71453403       2.71453451
Pt      23.92284968       2.66081008       6.47634400
Pt      23.93956553       2.64266430      10.35685943
Pt      23.93956568       2.64266419      14.26927806
Pt      23.92284996       2.66080973      18.14979343
Pt      23.88891125       2.71453345      21.91160301
Pt      23.92285019       6.47634297       2.66081010
Pt      23.97223295       6.48058009       6.48058093
Pt      24.00618065       6.43123123      10.34963178
Pt      24.00618093       6.43123124      14.27650575
Pt      23.97223348       6.48058009      18.14555675
Pt      23.92285060       6.47634289      21.96532771
Pt      23.93956664      10.35685829       2.64266382
Pt      24.00618141      10.34963076       6.43123195
Pt      24.07403305      10.34089708      10.34089822
Pt      24.07403322      10.34089718      14.28523966
Pt      24.00618173      10.34963100      18.19490590
Pt      23.93956694      10.35685857      21.98347386
Pt      23.93956701      14.26927763       2.64266344
Pt      24.00618193      14.27650534       6.43123177
Pt      24.07403356      14.28523914      10.34089824
Pt      24.07403358      14.28523925      14.28523983
Pt      24.00618197      14.27650564      18.19490607
Pt      23.93956713      14.26927802      21.98347400
Pt      23.92285119      18.14979383       2.66080902
Pt      23.97223439      18.14555710       6.48058032
Pt      24.00618217      18.19490599      10.34963178
Pt      24.00618217      18.19490606      14.27650612
Pt      23.97223439      18.14555719      18.14555732
Pt      23.92285131      18.14979407      21.96532823
Pt      23.88891245      21.91160431       2.71453292
Pt      23.92285151      21.96532844       6.47634322
Pt      23.93956757      21.98347423      10.35685927
Pt      23.93956758      21.98347421      14.26927859
Pt      23.92285154      21.96532833      18.14979439
Pt      23.88891254      21.91160412      21.91160423
Pt       2.71453431       0.73722697       2.71453439
Pt       2.66081051       0.70328883       6.47634386
Pt       2.64266464       0.68657303      10.35685920
Pt       2.64266451       0.68657287      14.26927802
Pt       2.66081023       0.70328851      18.14979352
Pt       2.71453406       0.73722665      21.91160313
Pt       2.71453291      23.88891145       2.71453301
Pt       2.66080882      23.92285011       6.47634322
Pt       2.64266293      23.93956598      10.35685908
Pt       2.64266289      23.93956603      14.26927851
Pt       2.66080875      23.92285016      18.14979442
Pt       2.71453279      23.88891153      21.91160445
Pt       6.47634392       0.70328850       2.66081061
Pt       6.48058091       0.65390654       6.48058078
Pt       6.43123211       0.61995891      10.34963158
Pt       6.43123210       0.61995867      14.27650569
Pt       6.48058092       0.65390612      18.14555676
Pt       6.47634392       0.70328819      21.96532709
Pt       6.47634321      23.92285035       2.66080888
Pt       6.48058015      23.97223311       6.48058025
Pt       6.43123120      24.00618074      10.34963166
Pt       6.43123107      24.00618085      14.27650606
Pt       6.48057976      23.97223335      18.14555756
Pt       6.47634292      23.92285057      21.96532871
Pt      10.35685943       0.68657226       2.64266479
Pt      10.34963181       0.61995838       6.43123194
Pt      10.34089820       0.55210681      10.34089798
Pt      10.34089827       0.55210670      14.28523958
Pt      10.34963197       0.61995824      18.19490569
Pt      10.35685960       0.68657212      21.98347277
Pt      10.35685917      23.93956674       2.64266284
Pt      10.34963176      24.00618142       6.43123130
Pt      10.34089809      24.07403300      10.34089794
Pt      10.34089805      24.07403321      14.28523981
Pt      10.34963159      24.00618197      18.19490650
Pt      10.35685914      23.93956716      21.98347494
Pt      14.26927839       0.68657195       2.64266478
Pt      14.27650600       0.61995787       6.43123199
Pt      14.28523988       0.55210634      10.34089806
Pt      14.28523990       0.55210638      14.28523960
Pt      14.27650606       0.61995800      18.19490558
Pt      14.26927851       0.68657196      21.98347264
Pt      14.26927861      23.93956714       2.64266278
Pt      14.27650626      24.00618189       6.43123135
Pt      14.28524010      24.07403339      10.34089801
Pt      14.28524015      24.07403360      14.28523981
Pt      14.27650642      24.00618239      18.19490642
Pt      14.26927882      23.93956746      21.98347495
Pt      18.14979390       0.70328772       2.66081055
Pt      18.14555680       0.65390525       6.48058090
Pt      18.19490573       0.61995767      10.34963174
Pt      18.19490567       0.61995765      14.27650574
Pt      18.14555664       0.65390521      18.14555649
Pt      18.14979380       0.70328752      21.96532690
Pt      18.14979454      23.92285131       2.66080869
Pt      18.14555759      23.97223437       6.48058021
Pt      18.19490649      24.00618204      10.34963169
Pt      18.19490659      24.00618218      14.27650607
Pt      18.14555783      23.97223467      18.14555747
Pt      18.14979484      23.92285148      21.96532884
Pt      21.91160326       0.73722648       2.71453457
Pt      21.96532713       0.70328790       6.47634395
Pt      21.98347290       0.68657206      10.35685941
Pt      21.98347291       0.68657194      14.26927806
Pt      21.96532720       0.70328760      18.14979335
Pt      21.91160330       0.73722602      21.91160275
Pt      21.91160467      23.88891232       2.71453290
Pt      21.96532878      23.92285132       6.47634324
Pt      21.98347465      23.93956728      10.35685926
Pt      21.98347466      23.93956732      14.26927854
Pt      21.96532882      23.92285136      18.14979440
Pt      21.91160469      23.88891232      21.91160440
Pt       2.71453411       2.71453375       0.73722714
Pt       2.71453389       2.71453334      23.88891022
Pt       2.66080981       6.47634300       0.70328842
Pt       2.66080978       6.47634308      23.92284902
Pt       2.64266363      10.35685849       0.68657220
Pt       2.64266371      10.35685874      23.93956514
Pt       2.64266347      14.26927775       0.68657200
Pt       2.64266352      14.26927797      23.93956528
Pt       2.66080913      18.14979374       0.70328772
Pt       2.66080912      18.14979387      23.92284961
Pt       2.71453293      21.91160431       0.73722614
Pt       2.71453285      21.91160412      23.88891143
Pt       6.47634383       2.66080997       0.70328856
Pt       6.47634383       2.66080953      23.92284886
Pt       6.48058062       6.48058004       0.65390584
Pt       6.48058059       6.48058002      23.97223168
Pt       6.43123164      10.34963098       0.61995775
Pt       6.43123154      10.34963125      24.00617968
Pt       6.43123154      14.27650533       0.61995747
Pt       6.43123130      14.27650561      24.00617990
Pt       6.48058027      18.14555686       0.65390482
Pt       6.48057985      18.14555705      23.97223266
Pt       6.47634322      21.96532838       0.70328721
Pt       6.47634292      21.96532822      23.92285053
Pt      10.35685942       2.64266411       0.68657233
Pt      10.35685957       2.64266368      23.93956494
Pt      10.34963177       6.43123115       0.61995782
Pt      10.34963187       6.43123108      24.00617972
Pt      10.34089808      10.34089728       0.55210581
Pt      10.34089817      10.34089750      24.07403181
Pt      10.34089804      14.28523908       0.55210545
Pt      10.34089807      14.28523935      24.07403219
Pt      10.34963170      18.19490578       0.61995656
Pt      10.34963156      18.19490589      24.00618127
Pt      10.35685915      21.98347439       0.68657081
Pt      10.35685913      21.98347433      23.93956719
Pt      14.26927841       2.64266406       0.68657208
Pt      14.26927847       2.64266367      23.93956510
Pt      14.27650599       6.43123110       0.61995741
Pt      14.27650598       6.43123106      24.00618014
Pt      14.28523969      10.34089721       0.55210537
Pt      14.28523984      10.34089752      24.07403228
Pt      14.28523969      14.28523906       0.55210495
Pt      14.28523996      14.28523939      24.07403267
Pt      14.27650601      18.19490583       0.61995603
Pt      14.27650626      18.19490588      24.00618176
Pt      14.26927853      21.98347452       0.68657041
Pt      14.26927877      21.98347438      23.93956750
Pt      18.14979393       2.66080985       0.70328784
Pt      18.14979386       2.66080936      23.92284951
Pt      18.14555690       6.48058000       0.65390473
Pt      18.14555685       6.48057996      23.97223304
Pt      18.19490593      10.34963084       0.61995653
Pt      18.19490601      10.34963119      24.00618123
Pt      18.19490602      14.27650531       0.61995611
Pt      18.19490628      14.27650571      24.00618148
Pt      18.14555733      18.14555700       0.65390345
Pt      18.14555766      18.14555706      23.97223417
Pt      18.14979446      21.96532862       0.70328619
Pt      18.14979480      21.96532842      23.92285149
Pt      21.91160341       2.71453395       0.73722663
Pt      21.91160354       2.71453330      23.88891079
Pt      21.96532777       6.47634295       0.70328755
Pt      21.96532796       6.47634285      23.92285031
Pt      21.98347407      10.35685831       0.68657116
Pt      21.98347414      10.35685863      23.93956663
Pt      21.98347434      14.26927762       0.68657076
Pt      21.98347437      14.26927804      23.93956678
Pt      21.96532859      18.14979379       0.70328644
Pt      21.96532866      18.14979404      23.92285099
Pt      21.91160464      21.91160435       0.73722511
Pt      21.91160465      21.91160413      23.88891230
Pt       4.59189090       2.67240788       2.67240815
Pt       4.55916788       2.60212120       6.49277254
Pt       4.51590999       2.56085714      10.35953656
Pt       4.51590995       2.56085703      14.26660088
Pt       4.55916780       2.60212091      18.13336510
Pt       4.59189079       2.67240749      21.95372952
Pt       4.55916762       6.49277190       2.60212102
Pt       4.55916754       6.49277191      22.02401676
Pt       4.51590949      10.35953593       2.56085662
Pt       4.51590939      10.35953613      22.06528097
Pt       4.51590936      14.26660061       2.56085635
Pt       4.51590914      14.26660078      22.06528105
Pt       4.55916714      18.13336533       2.60212011
Pt       4.55916681      18.13336536      22.02401717
Pt       4.59189009      21.95373062       2.67240679
Pt       4.55916699      22.02401752       6.49277185
Pt       4.51590896      22.06528150      10.35953647
Pt       4.51590886      22.06528151      14.26660125
Pt       4.55916670      22.02401745      18.13336574
Pt       4.59188983      21.95373044      21.95373054
Pt       8.41344802       2.63196424       2.63196447
Pt       8.40732356       2.52731066       6.45015034
Pt       8.38064438       2.43090177      10.35477741
Pt       8.38064440       2.43090168      14.27136018
Pt       8.40732361       2.52731040      18.17598739
Pt       8.41344807       2.63196384      21.99417328
Pt       8.40732351       6.45014976       2.52731041
Pt       8.40732354       6.45014969      22.09882751
Pt       8.38064424      10.35477677       2.43090115
Pt       8.38064423      10.35477694      22.19523665
Pt       8.38064418      14.27135983       2.43090082
Pt       8.38064407      14.27136003      22.19523680
Pt       8.40732331      18.17598752       2.52730933
Pt       8.40732306      18.17598759      22.09882817
Pt       8.41344763      21.99417447       2.63196292
Pt       8.40732329      22.09882832       6.45014966
Pt       8.38064406      22.19523721      10.35477729
Pt       8.38064398      22.19523731      14.27136050
Pt       8.40732306      22.09882847      18.17598800
Pt       8.41344751      21.99417446      21.99417462
Pt      12.31306885       2.61628329       2.61628353
Pt      12.31306881       2.48281748       6.42623739
Pt      12.31306893       2.36607333      10.34607326
Pt      12.31306895       2.36607331      14.28006450
Pt      12.31306889       2.48281738      18.19990040
Pt      12.31306897       2.61628298      22.00985411
Pt      12.31306880       6.42623675       2.48281729
Pt      12.31306887       6.42623666      22.14332061
Pt      12.31306885      10.34607253       2.36607274
Pt      12.31306893      10.34607270      22.26006510
Pt      12.31306885      14.28006410       2.36607237
Pt      12.31306893      14.28006431      22.26006529
Pt      12.31306882      18.19990058       2.48281612
Pt      12.31306885      18.19990061      22.14332144
Pt      12.31306884      22.00985554       2.61628186
Pt      12.31306887      22.14332151       6.42623663
Pt      12.31306895      22.26006564      10.34607308
Pt      12.31306895      22.26006576      14.28006479
Pt      12.31306890      22.14332170      18.19990104
Pt      12.31306892      22.00985555      22.00985574
Pt      16.21268970       2.63196415       2.63196443
Pt      16.21881397       2.52731049       6.45015046
Pt      16.24549331       2.43090171      10.35477748
Pt      16.24549329       2.43090171      14.27136017
Pt      16.21881393       2.52731042      18.17598723
Pt      16.21268970       2.63196382      21.99417322
Pt      16.21881399       6.45014978       2.52731029
Pt      16.21881395       6.45014970      22.09882762
Pt      16.24549333      10.35477671       2.43090108
Pt      16.24549341      10.35477692      22.19523676
Pt      16.24549340      14.27135983       2.43090072
Pt      16.24549359      14.27136009      22.19523692
Pt      16.21881422      18.17598755       2.52730911
Pt      16.21881445      18.17598758      22.09882837
Pt      16.21269001      21.99417466       2.63196274
Pt      16.21881433      22.09882848       6.45014969
Pt      16.24549367      22.19523717      10.35477733
Pt      16.24549372      22.19523725      14.27136052
Pt      16.21881451      22.09882857      18.17598793
Pt      16.21269024      21.99417458      21.99417473
Pt      20.03424657       2.67240776       2.67240799
Pt      20.06696937       2.60212099       6.49277254
Pt      20.11022718       2.56085700      10.35953662
Pt      20.11022713       2.56085693      14.26660091
Pt      20.06696926       2.60212072      18.13336500
Pt      20.03424651       2.67240726      21.95372965
Pt      20.06696963       6.49277193       2.60212073
Pt      20.06696958       6.49277178      22.02401719
Pt      20.11022780      10.35953587       2.56085633
Pt      20.11022781      10.35953605      22.06528145
Pt      20.11022799      14.26660054       2.56085598
Pt      20.11022810      14.26660084      22.06528154
Pt      20.06697024      18.13336537       2.60211964
Pt      20.06697040      18.13336546      22.02401770
Pt      20.03424742      21.95373092       2.67240639
Pt      20.06697037      22.02401787       6.49277176
Pt      20.11022829      22.06528175      10.35953648
Pt      20.11022831      22.06528178      14.26660126
Pt      20.06697046      22.02401784      18.13336576
Pt      20.03424756      21.95373079      21.95373091
Pt       2.67240769       4.59189056       2.67240798
Pt       2.60212094       4.55916766       6.49277250
Pt       2.56085700       4.51590970      10.35953654
Pt       2.56085694       4.51590971      14.26660091
Pt       2.60212083       4.55916759      18.13336519
Pt       2.67240761       4.59189040      21.95372970
Pt       2.63196368       8.41344734       2.63196385
Pt       2.52730999       8.40732300       6.45015007
Pt       2.43090121       8.38064379      10.35477732
Pt       2.43090120       8.38064385      14.27136031
Pt       2.52730999       8.40732312      18.17598775
Pt       2.63196370       8.41344747      21.99417382
Pt       2.61628251      12.31306818       2.61628258
Pt       2.48281658      12.31306823       6.42623684
Pt       2.36607247      12.31306834      10.34607310
Pt       2.36607247      12.31306840      14.28006471
Pt       2.48281657      12.31306839      18.19990097
Pt       2.61628258      12.31306837      22.00985491
Pt       2.63196326      16.21268935       2.63196332
Pt       2.52730943      16.21881379       6.45014978