20
Properties=species:S:1:pos:R:3 Geometry=T Step:=T 91=T pbc="F F F"
Ag      10.03232873      10.05528226      10.10575824
Ag       8.03000812       8.06476010      10.09209041
Ag       8.02278859      10.01009707       8.08237615
Ag      10.06887376       8.02828715       8.12776623
Pt      11.94697625      10.04540969       8.11690779
Ag       6.04697217       8.12680167       8.10816865
Pt       8.04792264      12.00226923       9.96885736
Ag      10.08469151       6.07628604      10.02061522
Pt       6.09293985      10.14856184      10.07035125
Pt      12.03221629       8.12316468      10.03447597
Pt       8.04970572       6.14535320       8.07168038
Pt      10.01944907      11.93237721       8.09320469
Pt       8.16658488       8.07285875       6.16709794
Pt      10.05838419      10.02554526       6.21336476
Pt      10.08992658       8.04876576      11.99499149
Ag       8.07979688      10.07499930      12.05831129
Ag      11.99716431      11.99370750       6.16187342
Pt       6.33498403       6.25034540       6.12832443
Ag       6.17018969      12.13327790      11.97802974
Ag      12.12564783       6.13965607      11.90404126
