20
Properties=species:S:1:pos:R:3 Geometry=T Step:=T 92=T pbc="F F F"
Pt      10.02717167      10.06731581      10.05740432
Pt       8.12275417       8.11214572      10.06344960
Pt       8.09784715      10.05102358       8.10994715
Pt      10.03068696       8.14315401       8.08157211
Pt      11.87127177       9.99811216       8.19703301
Pt       6.23674751       8.13180683       8.19175028
Pt       8.13204466      11.87545299      10.04976679
Pt       9.98861249       6.29821783      10.02901707
Pt       6.28044190       9.94329387      10.06995601
Pt      11.87003984       8.19911281      10.03054359
Pt       8.16046664       6.25697442       8.19116135
Ag      10.02225159      12.10544503       8.04703483
Ag       8.07824254       8.10950597       6.04848770
Ag      10.00378688      10.10685666       6.05480277
Pt       9.98526900       8.15343330      11.94486414
Pt       8.16741449       9.94378347      11.93779876
Pt      12.14794832      11.77921209       6.35314426
Ag       6.15254156       6.12662867       6.29725640
Pt       6.32481974      11.73906692      11.90117445
Pt      11.79840060       6.35702959      11.84189129
