20
Properties=species:S:1:pos:R:3 Geometry=T Step:=T 16=T pbc="F F F"
Pt      10.05187994      10.05187995      10.05187994
Pt       8.09793203       8.09793203      10.05187995
Pt       8.09793204      10.05187994       8.09793204
Pt      10.05187994       8.09793204       8.09793204
Pt      11.88659548       9.97909643       8.17071556
Pt       6.26321647       8.17071556       8.17071556
Pt       8.17071557      11.88659551       9.97909641
Pt       9.97909642       6.26321646       9.97909642
Pt       6.26321646       9.97909642       9.97909642
Pt      11.88659552       8.17071557       9.97909641
Pt       8.17071556       6.26321647       8.17071556
Pt       9.97909643      11.88659548       8.17071556
Pt       8.17071557       8.17071557       6.26321650
Pt       9.97909642       9.97909642       6.26321653
Pt       9.97909643       8.17071556      11.88659553
Pt       8.17071556       9.97909643      11.88659553
Pt      11.79090436      11.79090436       6.35890763
Pt       6.35890761       6.35890761       6.35890760
Pt       6.35890759      11.79090441      11.79090440
Pt      11.79090441       6.35890759      11.79090441
