13
Properties=species:S:1:pos:R:3 Geometry=T Step:=T 146=T pbc="F F F"
Pt      11.11943003      10.53717871      12.38681586
Pt      11.49718278       8.18622367      11.31084037
Pt      12.46906348       9.32245070       9.16801446
Pt      12.09290273      11.67340463      10.24461530
Pt       9.06670748       8.90844544      12.05143317
Pt       9.63800358      12.25219095      11.02932317
Pt       8.87847204       9.45966090       7.60998329
Pt       8.50012748      11.81023274       8.68665047
Pt       7.52847015      10.67486259      10.83012686
Pt       7.90431024       8.32444629       9.75230869
Pt      10.93083995      11.08840970       7.94575022
Pt      10.35943256       7.74497190       8.96814452
Pt       9.99874587       9.99853683       9.99866679
