1099
Properties=species:S:1:pos:R:3 Geometry=T Step:=T 95=T pbc="F F F"
Ag       0.26906469       0.24388256       0.25468309
Ag       0.24787498       0.23036912       4.22961365
Ag       0.22875361       0.22229300       8.25927085
Ag       0.22197478       0.22265785      12.30978823
Ag       0.22176157       0.22650036      16.35966039
Ag       0.23029104       0.24045755      20.39181523
Ag       0.24371942       0.25839045      24.36770272
Ag       0.24456933       4.22432514       0.23647353
Ag       0.17761005       4.23197577       4.23430101
Ag       0.15306943       4.21980691       8.26557225
Ag       0.14366701       4.21396443      12.30885358
Ag       0.14653891       4.22524104      16.35145182
Ag       0.16577190       4.24184072      20.38445237
Ag       0.22992061       4.23411570      24.38588969
Ag       0.22694445       8.25903615       0.22490035
Ag       0.15359515       8.26768396       4.22120873
Ag       0.12363924       8.27062487       8.26885010
Ag       0.11760434       8.27367048      12.30575978
Ag       0.11795989       8.28072134      16.34548145
Ag       0.14693463       8.27467887      20.40114947
Ag       0.22207562       8.26636193      24.40024502
Ag       0.22220450      12.31039914       0.22201027
Ag       0.14537566      12.31207893       4.21582530
Ag       0.13210648      12.30911874       8.27168215
Pt       0.10119321      12.35052670      12.27562744
Ag       0.11801953      12.32040113      16.35251695
Ag       0.14422123      12.31721261      20.41239192
Ag       0.22223784      12.31627949      24.40379980
Ag       0.22134846      16.36100588       0.22613284
Ag       0.14800548      16.34902453       4.22807538
Ag       0.13291605      16.33922067       8.28699472
Ag       0.13253217      16.35450844      12.31707528
Ag       0.12450875      16.35726763      16.35552458
Ag       0.15387158      16.36051629      20.40639471
Ag       0.22882616      16.36695951      24.40390827
Ag       0.22769490      20.39013384       0.24306403
Ag       0.16596884      20.37965507       4.24659104
Ag       0.14835683      20.39829332       8.27713352
Ag       0.14598563      20.41056858      12.31402988
Ag       0.15446788      20.40498619      16.35844047
Ag       0.17825617      20.39187847      20.39421511
Ag       0.24794742      20.39649330      24.39581185
Ag       0.23880222      24.36260202       0.26358365
Ag       0.22750231      24.38326031       4.23578225
Ag       0.22168342      24.40060134       8.26499765
Ag       0.22260957      24.40444001      12.31568581
Ag       0.22728130      24.40144695      16.36725883
Ag       0.24466739      24.38948073      20.40192561
Ag       0.26937754      24.37130195      24.38231795
Ag       4.24036765       0.23294056       0.23667002
Ag       4.24952106       0.16917615       4.24109026
Ag       4.22983973       0.14985029       8.27301177
Ag       4.21605482       0.14611131      12.31011531
Ag       4.21974666       0.15258313      16.35358776
Ag       4.23063730       0.17358718      20.38717341
Ag       4.22199946       0.23932402      24.38663565
Ag       4.24381701       4.23584364       0.17020750
Ag       4.23057838       4.23870752      24.45274684
Ag       4.22544119       8.26956146       0.14906479
Ag       4.21970072       8.27224713      24.47404561
Ag       4.21336236      12.31243602       0.14385733
Ag       4.21624092      12.31591520      24.48043405
Ag       4.21882165      16.35583514       0.15143478
Ag       4.23010616      16.35315782      24.47666411
Ag       4.23047886      20.38703502       0.17483616
Ag       4.24975113      20.38515438      24.45739254
Ag       4.22132976      24.38428044       0.24155573
Ag       4.23046588      24.45134721       4.23879360
Ag       4.21885683      24.47505892       8.26999383
Ag       4.21360655      24.48263257      12.31355651
Ag       4.22578002      24.47740200      16.35668689
Ag       4.24409846      24.45620632      20.39059878
Ag       4.24032463      24.38988740      24.39385713
Ag       8.26855515       0.22435010       0.22243440
Ag       8.27879571       0.15094705       4.22482299
Ag       8.28788814       0.13427635       8.28469093
Ag       8.27217071       0.13299095      12.31519717
Ag       8.26891756       0.12362186      16.35327164
Ag       8.26435705       0.15144770      20.40351524
Ag       8.25528444       0.22565283      24.40047407
Ag       8.27541240       4.22286817       0.14793167
Ag       8.26412024       4.22251415      24.47520388
Ag       8.28065909       8.27785155       0.11893680
Ag       8.26854257       8.27264282      24.50313914
Ag       8.27341344      12.31730457       0.11745153
Ag       8.27188458      12.31075984      24.49360697
Ag       8.27027319      16.35412490       0.12277657
Ag       8.28771934      16.34149618      24.49217778
Ag       8.26687060      20.40202437       0.15265681
Ag       8.27866877      20.40160784      24.47570041
Ag       8.25742855      24.39906777       0.22700408
Ag       8.26666681      24.47382320       4.22392240
Ag       8.26993429      24.50382290       8.27173841
Ag       8.27317618      24.50905932      12.30868614
Ag       8.28047715      24.50746535      16.34838386
Ag       8.27527611      24.47857904      20.40369854
Ag       8.26839759      24.40406028      24.40234603
Ag      12.31874096       0.22303092       0.22148597
Ag      12.31523327       0.14669124       4.21573357
Ag      12.31736693       0.13341898       8.27205216
Pt      12.27606307       0.10252547      12.27599435
Ag      12.30644381       0.11886898      16.35314312
Ag      12.30833976       0.14455755      20.41308702
Ag      12.30691691       0.22225293      24.40440131
Ag      12.31810381       4.21417990       0.14321576
Ag      12.30785099       4.21339190      24.48235843
Ag      12.32032080       8.27339878       0.11712180
Ag      12.30572328       8.27289303      24.50802004
Pt      12.35069253      12.34993900       0.10056970
Pt      12.27539069      12.34992978      24.52432849
Ag      12.30927070      16.35385929       0.13189599
Ag      12.31693267      16.35425886      24.49330061
Ag      12.31139443      20.41000045       0.14576320
Ag      12.31495169      20.41075595      24.47981731
Ag      12.30767669      24.40392000       0.22259410
Ag      12.31090452      24.48101420       4.21640091
Ag      12.30859225      24.49487400       8.27216107
Pt      12.35005563      24.52616530      12.27598688
Ag      12.31987591      24.50950728      16.35296041
Ag      12.31776825      24.48322689      20.41237050
Ag      12.31893881      24.40474063      24.40333564
Ag      16.36914548       0.22493311       0.22707025
Ag      16.35924849       0.15267242       4.22428225
Ag      16.35631599       0.12445349       8.27194287
Ag      16.35315050       0.11928156      12.30851995
Ag      16.34551438       0.12086554      16.34847849
Ag      16.35078743       0.14953349      20.40453164
Ag      16.35824131       0.22407087      24.40384506
Ag      16.36164691       4.22244488       0.15066741
Ag      16.35047358       4.22258524      24.47788929
Ag      16.35753470       8.27299837       0.12174167
Ag      16.34498008       8.27777695      24.50638001
Ag      16.35452747      12.31109338       0.13145343
Ag      16.35237901      12.31757317      24.50753709
Ag      16.33893231      16.34139100       0.13317957
Ag      16.35587338      16.35446034      24.50207007
Ag      16.34778790      20.40133931       0.15021921
Ag      16.35954825      20.40193306      24.47316128
Ag      16.35714558      24.40388185       0.22399659
Ag      16.34744359      24.47710518       4.22572570
Ag      16.33845177      24.49384219       8.28481557
Ag      16.35380886      24.49524497      12.31498568
Ag      16.35709921      24.50470800      16.35344524
Ag      16.36192747      24.47512439      20.40380954
Ag      16.37035088      24.39841724      24.40051624
Ag      20.40264383       0.23749358       0.24126539
Ag      20.39535255       0.17415910       4.23871437
Ag      20.40816049       0.15298378       8.27011024
Ag      20.41329546       0.14506696      12.31357458
Ag      20.40011439       0.14914941      16.35648599
Ag      20.38222365       0.16941480      20.39024427
Ag      20.38885845       0.23567994      24.39252587
Ag      20.39426398       4.23822460       0.17247515
Ag      20.38298929       4.23731118      24.45732003
Ag      20.40576653       8.27245427       0.15043476
Ag      20.40047186       8.27008585      24.47697623
Ag      20.40995517      12.31605537       0.14468907
Ag      20.41271975      12.31264693      24.48128023
Ag      20.39623540      16.35364084       0.14933247
Ag      20.40786650      16.35600209      24.47300711
Ag      20.37575058      20.38663897       0.17020885
Ag      20.39679779      20.38655202      24.45036238
Ag      20.38276821      24.39270888       0.23554517
Ag      20.37651964      24.45642733       4.24083919
Ag      20.39665779      24.47667176       8.27285887
Ag      20.40942048      24.48154947      12.31013496
Ag      20.40551062      24.47549715      16.35368757
Ag      20.39577066      24.45204724      20.38707057
Ag      20.40604989      24.38250725      24.38638244
Ag      24.38165021       0.25878665       0.25762363
Ag      24.39738458       0.24235138       4.23276161
Ag      24.40611141       0.22761272       8.26452383
Ag      24.40469995       0.22258523      12.31596647
Ag      24.39891073       0.22266570      16.36770109
Ag      24.38190802       0.23243038      20.39985533
Ag      24.36275634       0.25003832      24.37662319
Ag      24.39446037       4.23402761       0.23746363
Ag      24.46009146       4.24279230       4.24000740
Ag      24.48000943       4.22587686       8.27413787
Ag      24.48273665       4.21360201      12.31733133
Ag      24.47376476       4.21951709      16.36086442
Ag      24.45036211       4.23346136      20.39290322
Ag      24.38372845       4.22771752      24.39205290
Ag      24.40272694       8.26616004       0.22360400
Ag      24.47838964       8.27417992       4.22364491
Ag      24.50746812       8.27998543       8.28046593
Ag      24.50833699       8.27264651      12.32058063
Ag      24.50275044       8.26985394      16.35724100
Ag      24.47335076       8.26778291      20.40495269
Ag      24.39982668       8.26025516      24.40196999
Ag      24.40358348      12.31645405       0.22172849
Ag      24.48155300      12.31641258       4.21303903
Ag      24.50799067      12.31925155       8.27352889
Pt      24.52489736      12.34918243      12.35092120
Ag      24.49414197      12.30800126      16.35436800
Ag      24.48113570      12.31131419      20.40965318
Ag      24.40423602      12.31061728      24.40347557
Ag      24.39658913      16.36815020       0.22284242
Ag      24.47147606      16.36057519       4.21973372
Ag      24.50149240      16.35645199       8.27058335
Ag      24.49382282      16.35352419      12.30932129
Ag      24.49397806      16.33856117      16.33899302
Ag      24.47894791      16.34855237      20.39674790
Ag      24.40614892      16.36086722      24.39774980
Ag      24.37593895      20.39987509       0.23272691
Ag      24.44617191      20.39328494       4.23297903
Ag      24.47108664      20.40466945       8.26797046
Ag      24.47995037      20.41018554      12.31219938
Ag      24.47733854      20.39897786      16.34859275
Ag      24.46032303      20.38068044      20.37794760
Ag      24.39986704      20.39011776      24.38039562
Ag      24.35114749      24.37753858       0.24914592
Ag      24.37784627      24.39158733       4.22761529
Ag      24.39748794      24.40172687       8.25970648
Ag      24.40317652      24.40420010      12.31008749
Ag      24.40285731      24.40167642      16.35924370
Ag      24.39689980      24.38527585      20.38892903
Ag      24.38793166      24.36294371      24.36193145
Ag       0.20048677       2.21846188       2.22458510
Ag       0.17737561       2.20483053       6.24588569
Ag       0.16357382       2.19598874      10.28447248
Ag       0.16016200       2.19810611      14.33357654
Ag       0.16647361       2.21196307      18.37274259
Ag       0.18254209       2.23019137      22.39594942
Ag       0.17612207       6.24484946       2.20783347
Ag       0.14754248       6.24804506       6.24773713
Ag       0.12852478       6.24028058      10.28839354
Ag       0.12549890       6.24452058      14.32766779
Ag       0.13942546       6.25727392      18.36897359
Ag       0.16658296       6.25335348      22.41455799
Ag       0.16380335      10.28651808       2.19701531
Ag       0.13049599      10.29309525       6.24248403
Ag       0.12624092      10.29786570      10.28473837
Ag       0.11675463      10.30824054      14.31790878
Ag       0.12586222      10.29850999      18.38178541
Ag       0.16053529      10.29247817      22.42843558
Ag       0.16068027      14.33440796       2.19747103
Ag       0.13418107      14.32832704       6.25042051
Pt       0.10634852      14.29954119      10.32667760
Ag       0.12669862      14.34138258      14.32826407
Ag       0.12923752      14.33765306      18.38599670
Ag       0.16412014      14.34162521      22.43033461
Ag       0.16631388      18.37092160       2.21447840
Ag       0.14145517      18.36228888       6.26395716
Ag       0.13452571      18.37589249      10.29786970
Ag       0.13125140      18.38378757      14.33299367
Ag       0.14843486      18.37847339      18.37817927
Ag       0.17787047      18.38031262      22.42132706
Ag       0.18088739      22.39134328       2.23476382
Ag       0.16648646      22.41200918       6.25517638
Ag       0.16104895      22.42905890      10.29164197
Ag       0.16450046      22.42937641      14.33966282
Ag       0.17672320      22.41832091      18.38134491
Ag       0.20086453      22.40145319      22.40777076
Ag      24.44303208       2.23140825       2.22833770
Ag      24.46035056       2.21361808       6.25203223
Ag      24.46680574       2.19838584      10.29189529
Ag      24.46329684       2.19562865      14.34179185
Ag      24.45092761       2.20550739      18.38152588
Ag      24.42883050       2.22177709      22.40427758
Ag      24.45851309       6.25326356       2.20924094
Ag      24.48627026       6.25733017       6.25633873
Ag      24.50055868       6.24410076      10.29842125
Ag      24.49744787       6.23959844      14.33787590
Ag      24.47946969       6.24809812      18.37859003
Ag      24.45146268       6.24643903      22.41924514
Ag      24.46483729      10.29188224       2.19630133
Ag      24.49958455      10.29767361       6.24382220
Ag      24.50896338      10.30703603      10.30840990
Ag      24.49949281      10.29654086      14.34149992
Ag      24.49588784      10.29217863      18.38336783
Ag      24.46282825      10.28650389      22.42888406
Ag      24.46149227      14.34161652       2.19551468
Ag      24.49665176      14.33669803       6.23983855
Ag      24.49987701      14.34006564      10.29799196
Pt      24.52020215      14.29835663      14.29960580
Ag      24.49273588      14.32752889      18.37521967
Ag      24.46623482      14.33387664      22.42727775
Ag      24.44680082      18.38182932       2.20569481
Ag      24.47689694      18.37845398       6.24814830
Ag      24.49507932      18.38310392      10.29327803
Ag      24.49180034      18.37551727      14.32828406
Ag      24.48509351      18.36239979      18.36143902
Ag      24.46070742      18.37089005      22.40939422
Ag      24.42214435      22.40476892       2.22116758
Ag      24.44736819      22.41895165       6.24604825
Ag      24.46103907      22.42892759      10.28659292
Ag      24.46432197      22.42929431      14.33390583
Ag      24.45891753      22.41374003      18.36973100
Ag      24.44560807      22.39263685      22.38961844
Ag       2.23906546       0.18497016       2.22768279
Ag       2.21766858       0.16841117       6.24999346
Ag       2.19873319       0.16172230      10.28694848
Ag       2.19598913       0.16373706      14.33428979
Ag       2.20419713       0.17391259      18.37405943
Ag       2.21760511       0.19354586      22.39734343
Ag       2.21554640      24.42973898       2.23081705
Ag       2.20339642      24.45193312       6.25071873
Ag       2.19541888      24.46388450      10.28971752
Ag       2.19814554      24.46482499      14.33952040
Ag       2.21368475      24.45583176      18.37980952
Ag       2.23598021      24.43619229      22.40547630
Ag       6.25815678       0.17008100       2.20952293
Ag       6.26558279       0.14377095       6.26002568
Ag       6.25134757       0.13531586      10.29476312
Ag       6.24226980       0.13072479      14.33002967
Ag       6.24648970       0.14573476      18.37381645
Ag       6.24217674       0.17286351      22.41578545
Ag       6.24340074      24.45177924       2.21122316
Ag       6.24701406      24.48053468       6.25141518
Ag       6.23954449      24.49855855      10.29226670
Ag       6.24435584      24.50013863      14.33145869
Ag       6.25782678      24.48458968      18.37324723
Ag       6.25555451      24.45662668      22.41874161
Ag      10.29390307       0.16277914       2.19552698
Ag      10.29867722       0.13583265       6.24900647
Pt      10.32700888       0.10750670      10.32578463
Ag      10.28541449       0.12714438      14.32780614
Ag      10.28841607       0.12908300      18.38500159
Ag      10.28268718       0.16260736      22.42925811
Ag      10.28493927      24.46265080       2.19862311
Ag      10.29236414      24.49667512       6.24416276
Ag      10.29736999      24.50109619      10.28667195
Ag      10.30778945      24.50988282      14.31955157
Ag      10.29841279      24.50079162      18.38318118
Ag      10.29362261      24.46591263      22.42939066
Ag      14.34128183       0.16368206       2.19832066
Ag      14.33377983       0.13129204       6.24419549
Ag      14.32886366       0.12761000      10.28648213
Ag      14.31859051       0.11878450      14.31966239
Ag      14.32768848       0.12776414      18.38378084
Ag      14.33253897       0.16184928      22.43067626
Ag      14.33223955      24.46500277       2.19683799
Ag      14.32750221      24.49259212       6.24961302
Pt      14.29884511      24.52108840      10.32583093
Ag      14.34060405      24.50157332      14.32758232
Ag      14.33770064      24.49902566      18.38499445
Ag      14.34330741      24.46378346      22.42891297
Ag      18.38217617       0.17284366       2.21178016
Ag      18.37922220       0.14657348       6.25173540
Ag      18.38722555       0.12991429      10.29232148
Ag      18.38182429       0.12790036      14.33147042
Ag      18.36807659       0.14263412      18.37332449
Ag      18.37115680       0.17032318      22.41928910
Ag      18.36743849      24.45688524       2.21020135
Ag      18.36086958      24.48332733       6.26017540
Ag      18.37483406      24.49261330      10.29481234
Ag      18.38325498      24.49767257      14.33004577
Ag      18.37951484      24.48144960      18.37408799
Ag      18.38440906      24.45182525      22.41629572
Ag      22.40857624       0.19386981       2.22879755
Ag      22.42337511       0.17496371       6.25020427
Ag      22.43209700       0.16387624      10.28971162
Ag      22.42839795       0.16154272      14.33962262
Ag      22.41203818       0.16888573      18.37929138
Ag      22.39226869       0.18749076      22.40344675
Ag      22.38503517      24.43874607       2.22579005
Ag      22.40897201      24.45630914       6.24952614
Ag      22.42715314      24.46457704      10.28707222
Ag      22.42889202      24.46399919      14.33429487
Ag      22.42127236      24.45307194      18.37353222
Ag      22.41037597      24.43017637      22.39542239
Ag       2.23567262       2.22087627       0.19003620
Ag       2.21749949       2.22867666      24.43249357
Ag       2.21333274       6.24651594       0.17045550
Ag       2.20412405       6.25174640      24.45274532
Ag       2.19776229      10.28665138       0.16162200
Ag       2.19618909      10.29173364      24.46283606
Ag       2.19516397      14.33625834       0.16262079
Ag       2.19895076      14.33921340      24.46468317
Ag       2.20338395      18.37511016       0.17463090
Ag       2.21790308      18.37617156      24.45794925
Ag       2.21555636      22.39512524       0.19618724
Ag       2.23935844      22.39845897      24.44147128
Ag       6.25563577       2.20793155       0.16989223
Ag       6.24216603       2.21019265      24.45345564
Ag       6.25772138       6.25310278       0.14187840
Ag       6.24629103       6.25204126      24.48082217
Ag       6.24431545      10.29464596       0.12640264
Ag       6.24219645      10.29588394      24.49585707
Ag       6.23955067      14.33363790       0.12790351
Ag       6.25137728      14.33131205      24.49126387
Ag       6.24718027      18.37438074       0.14586055
Ag       6.26567471      18.36620557      24.48277523
Ag       6.24342217      22.41466926       0.17442881
Ag       6.25806140      22.41693850      24.45664268
Ag      10.29383328       2.19726327       0.16050381
Ag      10.28244018       2.19705087      24.46404672
Ag      10.29869486       6.24324730       0.12562979
Ag      10.28787112       6.24107462      24.49775006
Ag      10.30812933      10.30657261       0.11665421
Ag      10.28487535      10.29815298      24.49950926
Ag      10.29789702      14.33925428       0.12546868
Pt      10.32658959      14.30032072      24.51907686
Ag      10.29285456      18.38187705       0.12998927
Ag      10.29843012      18.37734556      24.49069869
Ag      10.28516198      22.42757846       0.16385352
Ag      10.29371451      22.43098378      24.46378237
Ag      14.34310824       2.19736220       0.16229699
Ag      14.33219826       2.19642682      24.46541928
Ag      14.33814194       6.24154082       0.12743443
Ag      14.32714752       6.24264866      24.49951647
Ag      14.34138030      10.29864544       0.12539131
Ag      14.31772830      10.30632792      24.50826596
Pt      14.29958878      14.30016297       0.10584837
Ag      14.32808001      14.33973782      24.49945372
Ag      14.32805357      18.37676470       0.13453706
Ag      14.33336657      18.38229338      24.49522478
Ag      14.33260983      22.43019138       0.16217061
Ag      14.34152510      22.42791890      24.46241283
Ag      18.38284106       2.20905754       0.17303041
Ag      18.37122059       2.20867495      24.45725385
Ag      18.37931128       6.25215563       0.14416338
Ag      18.36808519       6.25347184      24.48435562
Ag      18.38386860      10.29619688       0.12896350
Ag      18.38138716      10.29475385      24.49883148
Ag      18.37522729      14.33139071       0.13399541
Ag      18.38657104      14.33391072      24.49687718
Ag      18.36083143      18.36652801       0.14350359
Ag      18.37940789      18.37446054      24.47911049
Ag      18.36740100      22.41774533       0.17063603
Ag      18.38370042      22.41356052      24.45202297
Ag      22.40696349       2.22800554       0.19271619
Ag      22.39322302       2.22426922      24.43929686
Ag      22.42050864       6.25162288       0.17143020
Ag      22.41343659       6.24806046      24.45676382
Ag      22.42944035      10.29185727       0.16186353
Ag      22.42837494      10.28713489      24.46413746
Ag      22.42714042      14.33963065       0.16101834
Ag      22.43148374      14.33643204      24.46206699
Ag      22.40754358      18.37770692       0.16925856
Ag      22.42408768      18.37494297      24.44958208
Ag      22.38405245      22.40192477       0.18798342
Ag      22.41198287      22.39452108      24.42907733
Ag       4.24620136       4.23713411       4.23843847
Ag       4.22616382       4.22184045       8.27704661
Ag       4.21359227       4.21594864      12.31129749
Ag       4.21814431       4.22494429      16.34566022
Ag       4.23350323       4.24171115      20.38452222
Ag       4.22602817       8.27734779       4.22004009
Ag       4.20349239       8.27226657       8.27166596
Ag       4.18905752       8.27238503      12.31139701
Ag       4.19560716       8.27754964      16.34846380
Ag       4.21829198       8.28033999      20.40133461
Ag       4.21558186      12.31173477       4.21366573
Ag       4.19483217      12.31270039       8.26957390
Ag       4.18403317      12.31409156      12.31184291
Ag       4.18933408      12.31453147      16.35365564
Ag       4.21398304      12.31461702      20.41033560
Ag       4.22027171      16.34544384       4.22450872
Ag       4.19927949      16.34730484       8.27870349
Ag       4.19510593      16.35645571      12.31323609
Ag       4.20403845      16.35434662      16.35380638
Ag       4.22660244      16.34904831      20.40450786
Ag       4.23375190      20.38318944       4.24294945
Ag       4.22042663      20.40168053       8.28053289
Ag       4.21599834      20.41256493      12.31420314
Ag       4.22650379      20.40625376      16.34879797
Ag       4.24660791      20.38790288      20.38931964
Ag       8.28335350       4.22312637       4.22117968
Ag       8.27959646       4.20084625       8.27640278
Ag       8.26957873       4.19526943      12.31211173
Ag       8.27079785       4.20271266      16.35253107
Ag       8.27376459       4.22335484      20.40292197
Ag       8.27871057       8.27566776       4.19690523
Ag       8.26899028       8.26788195       8.26626509
Ag       8.26292974       8.26365278      12.31353269
Ag       8.26543789       8.26764739      16.35822779
Ag       8.27071648       8.27336350      20.42358084
Ag       8.27256338      12.31279207       4.18897058
Ag       8.26416731      12.31199628       8.26327830
Ag       8.25856141      12.31220182      12.31355561
Ag       8.26303365      12.31223620      16.36226465
Ag       8.26948004      12.31373182      20.43104368
Ag       8.27140669      16.35125468       4.20207413
Ag       8.26702780      16.35749012       8.26837570
Ag       8.26427136      16.36260134      12.31378557
Ag       8.26917074      16.35969137      16.35811377
Ag       8.27956032      16.34967852      20.42553633
Ag       8.27512658      20.40244818       4.22371477
Ag       8.27133169      20.42411856       8.27460145
Ag       8.27246950      20.43727915      12.31308405
Ag       8.27866689      20.42941198      16.35045910
Ag       8.28322582      20.40518564      20.40333551
Ag      12.31626547       4.21635071       4.21339834
Ag      12.31398857       4.19552568       8.26966488
Ag      12.31201966       4.18462410      12.31223995
Ag      12.31090459       4.19019016      16.35488722
Ag      12.30957434       4.21405771      20.41243648
Ag      12.31568857       8.27225409       4.18889119
Ag      12.31416421       8.26374910       8.26316757
Ag      12.31331586       8.25808125      12.31369368
Ag      12.31255259       8.26250485      16.36338956
Ag      12.31054523       8.27104730      20.43633045
Ag      12.31459030      12.31358895       4.18371851
Ag      12.31318921      12.31182179       8.25877506
Ag      12.31307090      12.31183638      12.31369771
Ag      12.31294200      12.31183483      16.36786386
Ag      12.31153925      12.31359646      20.44186941
Ag      12.31260494      16.35512226       4.19424931
Ag      12.31210848      16.36144921       8.26441759
Ag      12.31283746      16.36711460      12.31371808
Ag      12.31346456      16.36269202      16.36214679
Ag      12.31339236      16.35635609      20.43098248
Ag      12.31062128      20.41066439       4.21572419
Ag      12.31226353      20.43216709       8.27078018
Ag      12.31410174      20.44271370      12.31225773
Ag      12.31510047      20.43756841      16.35381124
Ag      12.31578325      20.41297090      20.41008527
Ag      16.35204471       4.22423497       4.22269069
Ag      16.35569556       4.20323868       8.27416428
Ag      16.35477370       4.19043994      12.31320337
Ag      16.34792017       4.19797154      16.35133921
Ag      16.34327686       4.22146455      20.40543149
Ag      16.35571881       8.27398901       4.20178538
Ag      16.36105182       8.26779898       8.26858392
Ag      16.36311505       8.26259544      12.31391170
Ag      16.35676554       8.26560118      16.36007075
Ag      16.34722986       8.27447294      20.42881455
Ag      16.35676229      12.31349345       4.19449500
Ag      16.36311306      12.31153578       8.26443811
Ag      16.36759638      12.31147136      12.31381604
Ag      16.36197451      12.31130088      16.36342230
Ag      16.35342461      12.31256211      20.43656445
Ag      16.34677988      16.34844139       4.20021448
Ag      16.35734184      16.35741887       8.26820937
Ag      16.36195428      16.36154921      12.31368113
Ag      16.35877180      16.35765946      16.35847737
Ag      16.35440584      16.35186947      20.42327074
Ag      16.34246749      20.40350469       4.22328099
Ag      16.34610179      20.42649401       8.27733760
Ag      16.35543808      20.43243519      12.31226744
Ag      16.35440467      20.42466971      16.35210193
Ag      16.35129374      20.40335817      20.40186160
Ag      20.39232114       4.24209524       4.24081502
Ag      20.40783095       4.22490993       8.28020866
Ag      20.41252604       4.21444717      12.31495477
Ag      20.40072771       4.22046324      16.34983331
Ag      20.38173384       4.23743317      20.38929089
Ag      20.40741781       8.28019043       4.22383901
Ag      20.43015723       8.27680188       8.27806549
Ag      20.43642296       8.27091648      12.31539943
Ag      20.42240936       8.27086513      16.35483540
Ag      20.40027287       8.27662992      20.40608926
Ag      20.41212737      12.31412059       4.21527876
Ag      20.43684758      12.31358190       8.27278870
Ag      20.44212134      12.31311617      12.31489634
Ag      20.43131304      12.31177154      16.35691044
Ag      20.41060171      12.31125402      20.41193549
Ag      20.39941164      16.34829267       4.22162666
Ag      20.42236206      16.35297781       8.27268633
Ag      20.43174997      16.35503539      12.31358973
Ag      20.42725864      16.34659041      16.34785077
Ag      20.40629790      16.34530036      20.40064763