1099
Properties=species:S:1:pos:R:3 Geometry=T Step:=T 107=T pbc="F F F"
Ag       0.38999444       0.39015422       0.26083362
Ag       0.33791134       0.33284840       4.27006915
Ag       0.30826010       0.29011470       8.36812841
Ag       0.34729516       0.24839833      12.36469803
Ag       0.35596475       0.26199474      16.25927485
Ag       0.36780248       0.27185806      20.27524351
Ag       0.39595469       0.26008116      24.24120300
Ag       0.35960975       4.35730277       0.27536239
Ag       0.23870986       4.31802216       4.29763135
Ag       0.20004725       4.30056140       8.37319278
Pt       0.20304150       4.41102899      12.33227678
Ag       0.21304182       4.31274867      16.27649947
Ag       0.24242916       4.29443685      20.31109479
Ag       0.33979068       4.27139809      24.29433061
Ag       0.34879883       8.37338307       0.26619793
Ag       0.20915201       8.35617751       4.31845435
Pt       0.16334624       8.39665432       8.40985757
Pt       0.16047345       8.38778066      12.32640835
Pt       0.16503287       8.40504940      16.23651822
Ag       0.19993142       8.36846768      20.32014592
Ag       0.30290320       8.37499085      24.32522670
Ag       0.34346872      12.26713905       0.25044250
Pt       0.20110108      12.30105895       4.41327413
Pt       0.15944652      12.31939816       8.38919965
Pt       0.14008268      12.33124035      12.33206449
Pt       0.16287896      12.34812842      16.26960131
Pt       0.20619396      12.32738075      20.18703563
Ag       0.30937595      12.40782045      24.31202495
Ag       0.30809683      16.26334988       0.28983436
Ag       0.19935623      16.25875840       4.29860897
Pt       0.16290247      16.22327634       8.39460688
Pt       0.16197721      16.26872751      12.34247691
Pt       0.18537070      16.27860123      16.26790350
Pt       0.22017246      16.29881402      20.17710907
Ag       0.31937873      16.24481993      24.29974518
Ag       0.33863990      20.36104275       0.33273067
Ag       0.23753744      20.33068888       4.31754023
Ag       0.20700027      20.30240447       8.35254107
Pt       0.20441203      20.18708654      12.29769363
Pt       0.20980970      20.19196018      16.28239916
Ag       0.24373372      20.24569114      20.27221589
Ag       0.31667747      20.21743404      24.30187531
Ag       0.38921929      24.37003001       0.39254414
Ag       0.35718692      24.35187163       4.36045039
Ag       0.34129112      24.35052346       8.37850333
Ag       0.30547045      24.31228283      12.30835594
Ag       0.27360575      24.27069838      16.25787011
Ag       0.29096531      24.23554788      20.31401942
Ag       0.31124964      24.16966153      24.31119008
Ag       4.35693860       0.36690614       0.27088069
Ag       4.32266396       0.24152563       4.29293774
Ag       4.32160820       0.19858871       8.35822570
Pt       4.45037085       0.19900875      12.31974084
Pt       4.45096582       0.21203051      16.29981829
Ag       4.37448434       0.23526436      20.26045542
Ag       4.36229522       0.27510199      24.26761213
Ag       4.36694813       4.37264984       0.23404439
Ag       4.32274455       4.29849954      24.38912810
Pt       4.44409962       8.33132585       0.21228821
Ag       4.30909488       8.37362038      24.42644345
Pt       4.44677722      12.31042546       0.19914370
Pt       4.43742256      12.33052275      24.41555373
Ag       4.32069557      16.27208635       0.19815685
Pt       4.44202953      16.29707952      24.39954607
Ag       4.32217879      20.33832738       0.24222061
Ag       4.34753043      20.24298459      24.37705232
Ag       4.35529594      24.36182041       0.37028541
Ag       4.36405599      24.39524988       4.37684426
Pt       4.43154925      24.41204354       8.34388204
Pt       4.43151739      24.41539889      12.32178670
Ag       4.30939573      24.41164251      16.27029174
Ag       4.29634157      24.36602162      20.32658150
Ag       4.30609323      24.23318346      24.33393663
Ag       8.37395993       0.35844227       0.26148248
Ag       8.35714690       0.21772308       4.31182138
Pt       8.39569695       0.17174900       8.40690446
Pt       8.35705334       0.17387192      12.35259734
Pt       8.35285011       0.19728059      16.27885103
Pt       8.33363014       0.21519006      20.18049125
Ag       8.37782168       0.26874798      24.27661708
Pt       8.32839837       4.45273261       0.21114304
Ag       8.35674626       4.32072049      24.41557470
Pt       8.34711507       8.35114838       0.19456727
Pt       8.39472550       8.41327408      24.45920094
Pt       8.35235256      12.27627928       0.17206393
Pt       8.35925455      12.35476303      24.45613751
Pt       8.39260987      16.22269460       0.17002119
Pt       8.35608926      16.27871178      24.43318128
Ag       8.35425457      20.31945580       0.21652813
Pt       8.33066287      20.18217312      24.41344807
Ag       8.37022056      24.37036581       0.35920593
Pt       8.32481308      24.41994115       4.45686327
Pt       8.34488059      24.43563322       8.35459544
Pt       8.35352924      24.45856834      12.27648899
Pt       8.39496937      24.46129281      16.22108291
Ag       8.35069958      24.41256698      20.31871622
Ag       8.35918497      24.26751230      24.35702017
Ag      12.26514024       0.35249925       0.24738076
Pt      12.29601156       0.21025970       4.41541929
Pt      12.30004147       0.17141241       8.39343888
Pt      12.29311921       0.15463093      12.33842489
Pt      12.27941568       0.17778301      16.27377561
Pt      12.31233405       0.20527298      20.17777003
Ag      12.26807563       0.25743017      24.28352652
Pt      12.30916814       4.45577610       0.19834564
Pt      12.29941951       4.42286488      24.42219379
Pt      12.27491450       8.35611754       0.17209721
Pt      12.30534955       8.39700561      24.46011723
Pt      12.28820755      12.28927780       0.15003198
Pt      12.29932157      12.33939510      24.47610541
Pt      12.29553199      16.23532750       0.16741146
Pt      12.28510939      16.27586932      24.45282772
Pt      12.29318912      20.21630784       0.20726289
Pt      12.31600768      20.18204295      24.42457092
Ag      12.26335779      24.38190903       0.35154629
Pt      12.30869132      24.43157684       4.45173277
Pt      12.27722173      24.45917485       8.35447673
Pt      12.29325741      24.48131864      12.28859855
Pt      12.30220424      24.46477135      16.23227125
Pt      12.29929702      24.42518657      20.20899713
Ag      12.27189492      24.28541417      24.37170499
Ag      16.24199907       0.30625017       0.28582125
Ag      16.24571162       0.20310804       4.30662079
Pt      16.21452907       0.17141022       8.40251995
Pt      16.23257864       0.17133477      12.32803083
Pt      16.22442021       0.17644838      16.23490790
Ag      16.26719434       0.20462577      20.30488702
Ag      16.24657354       0.29510450      24.32682621
Ag      16.26736851       4.32949140       0.19717416
Ag      16.25218317       4.31363293      24.42627531
Pt      16.22570180       8.39737700       0.17149735
Pt      16.22119149       8.40593985      24.45663314
Pt      16.23115333      12.30044383       0.16731883
Pt      16.23795729      12.33014199      24.45663018
Pt      16.21163457      16.22452730       0.16739887
Pt      16.22823394      16.23785140      24.45141544
Ag      16.25078210      20.32276786       0.20224239
Ag      16.27112842      20.30948477      24.42307861
Ag      16.26005486      24.33383071       0.30858755
Ag      16.27243110      24.42822248       4.31965301
Pt      16.22432321      24.45744931       8.39109690
Pt      16.23608428      24.46130002      12.29686597
Pt      16.22296280      24.46067798      16.21744974
Ag      16.25549442      24.43081057      20.30933752
Ag      16.25099081      24.33197644      24.33049555
Ag      20.30525672       0.31389607       0.31050555
Ag      20.30128143       0.22179498       4.31118495
Ag      20.29396545       0.19546698       8.36059698
Pt      20.19220822       0.19457428      12.31833748
Ag      20.30673174       0.20351458      16.27295163
Ag      20.31353050       0.23031102      20.31693915
Ag      20.31172512       0.31846021      24.31500460
Ag      20.31265223       4.31338418       0.22607463
Ag      20.30996899       4.31791627      24.40423729
Ag      20.31909373       8.36747704       0.20458355
Ag      20.30180937       8.36502233      24.42909061
Pt      20.20600942      12.31906308       0.20661754
Pt      20.19677978      12.32193586      24.43097266
Ag      20.30411486      16.26306933       0.21145677
Ag      20.30827300      16.27681773      24.42301105
Ag      20.32816961      20.30112195       0.23849145
Ag      20.31457696      20.32203730      24.39513458
Ag      20.35915207      24.28614912       0.33477136
Ag      20.33727579      24.38093049       4.31875398
Ag      20.31722675      24.40847491       8.35278460
Pt      20.21090145      24.41947378      12.29368448
Ag      20.31563442      24.42739964      16.24725017
Ag      20.31350020      24.40695019      20.30358243
Ag      20.31396186      24.32148365      24.30390911
Ag      24.28699407       0.32624730       0.33409996
Ag      24.30161410       0.30312861       4.31510835
Ag      24.32208466       0.28567772       8.37397037
Ag      24.33516675       0.28111901      12.31484116
Ag      24.33152326       0.29711519      16.25697306
Ag      24.31474754       0.32104574      20.31715821
Ag      24.29412766       0.33995694      24.29798582
Ag      24.31236846       4.30822635       0.32037334
Ag      24.39532315       4.30550623       4.31754666
Ag      24.41914279       4.31200458       8.35966042
Pt      24.42498388       4.42653258      12.31143605
Ag      24.42305554       4.32385002      16.26552406
Ag      24.39975682       4.32035521      20.31570964
Ag      24.31123327       4.32107156      24.31754908
Ag      24.33634554       8.37354347       0.30795948
Ag      24.42282393       8.35407305       4.32923594
Pt      24.44744645       8.39800465       8.39792784
Pt      24.44879665       8.38972653      12.30307044
Pt      24.44950147       8.40546979      16.22226469
Ag      24.42386530       8.36631274      20.30715247
Ag      24.33036749       8.37997408      24.33516026
Ag      24.37185916      12.35223748       0.34765598
Pt      24.42149708      12.30985393       4.45302478
Pt      24.44634827      12.34402758       8.35739175
Pt      24.46681614      12.33137211      12.29305847
Pt      24.45016643      12.32365954      16.23422558
Pt      24.42745807      12.31885122      20.19692280
Ag      24.33949764      12.32011508      24.34256044
Ag      24.35701620      16.24232475       0.34966531
Pt      24.41112114      16.28809929       4.44700732
Pt      24.42757005      16.26965645       8.35084897
Pt      24.44780838      16.26650448      12.27841311
Pt      24.45015759      16.22945350      16.22222307
Ag      24.42406549      16.27151322      20.30405132
Ag      24.33218086      16.26221773      24.32904059
Ag      24.35081913      20.25861929       0.35787574
Ag      24.39178876      20.24606579       4.36648593
Pt      24.41328918      20.16988358       8.32969574
Pt      24.42439567      20.17051320      12.30937786
Ag      24.42637354      20.30158166      16.26286158
Ag      24.40132122      20.31773159      20.30590286
Ag      24.31439193      20.32213574      24.30530578
Ag      24.36925631      24.22537022       0.38625349
Ag      24.35856501      24.25143186       4.35304137
Ag      24.36551619      24.26445952       8.37131925
Ag      24.37667030      24.27603604      12.26292955
Ag      24.33825516      24.32482310      16.23936553
Ag      24.31431528      24.31816229      20.30155084
Ag      24.29584866      24.30248578      24.28321877
Ag       0.29904721       2.33010020       2.25659000
Ag       0.24143405       2.27499272       6.32934469
Ag       0.24769546       2.26726960      10.38932955
Ag       0.26811416       2.27383205      14.29160433
Ag       0.26745104       2.25590517      18.27436287
Ag       0.30405426       2.25480877      22.30020665
Ag       0.26148491       6.35764252       2.26044201
Ag       0.18340906       6.33258718       6.34767136
Pt       0.17595945       6.40583026      10.38857311
Pt       0.17870427       6.41261558      14.26327976
Ag       0.18613050       6.34204208      18.29611981
Ag       0.24162438       6.32886243      22.34935171
Ag       0.26418060      10.34115591       2.27752401
Pt       0.17684725      10.37336227       6.41782665
Pt       0.15006542      10.36079004      10.36494467
Pt       0.14991293      10.36997170      14.29037318
Pt       0.17746776      10.38249365      18.21563153
Ag       0.23754194      10.39114129      22.33768633
Ag       0.24583905      14.24283454       2.26783675
Pt       0.17474780      14.24837061       6.40415688
Pt       0.14876983      14.28617807      10.36835273
Pt       0.15222307      14.30717698      14.30459413
Pt       0.19313218      14.31408123      18.24595769
Ag       0.25305664      14.31982663      22.26697997
Ag       0.24078345      18.30165186       2.27393717
Ag       0.18280767      18.28047239       6.32977448
Pt       0.17730593      18.20437077      10.36925776
Pt       0.19024720      18.25448348      14.30012135
Pt       0.21764351      18.22961095      18.21566231
Ag       0.25982912      18.23789635      22.30227651
Ag       0.29822105      22.37291688       2.33120407
Ag       0.25860892      22.36384608       6.35835073
Ag       0.25435431      22.32943323      10.34180935
Ag       0.23264182      22.27629942      14.27401144
Ag       0.23701014      22.28144398      18.27187930
Ag       0.25728246      22.23167282      22.31437970
Ag      24.35528182       2.29260358       2.30476278
Ag      24.38613658       2.26863604       6.34366113
Ag      24.38806072       2.29056747      10.36192167
Ag      24.39173762       2.29658874      14.26440661
Ag      24.39411599       2.28394933      18.28626675
Ag      24.36125511       2.30866523      22.32981243
Ag      24.39326880       6.33738104       2.28596693
Ag      24.43482918       6.33439883       6.34483719
Pt      24.43820080       6.41268412      10.37018609
Pt      24.43882183       6.41909294      14.24737671
Ag      24.43808766       6.34754017      18.28458974
Ag      24.39309992       6.34938455      22.35136872
Ag      24.40119093      10.36120261       2.31758869
Pt      24.43726059      10.37195136       6.42264922
Pt      24.45784655      10.36783782      10.33687053
Pt      24.45806284      10.36305138      14.26255274
Pt      24.44065604      10.38121666      18.20730827
Ag      24.39299986      10.36830688      22.33108709
Ag      24.40157100      14.29377602       2.37334276
Pt      24.42420310      14.30602293       6.37952415
Pt      24.45578540      14.30487972      10.31816914
Pt      24.45933472      14.28841216      14.25486730
Pt      24.44063986      14.25843973      18.20841846
Ag      24.39382047      14.27032890      22.32871866
Ag      24.39159531      18.24913142       2.33738002
Pt      24.40364864      18.21504422       6.40188313
Pt      24.42527616      18.24138153      10.31440247
Pt      24.44039051      18.20359637      14.24805332
Ag      24.43905731      18.28666290      18.28108446
Ag      24.39494426      18.29121133      22.34313623
Ag      24.39941313      22.25720240       2.35312000
Ag      24.39656266      22.27487894       6.36475530
Ag      24.40637738      22.24601920      10.32387195
Ag      24.40365514      22.31030335      14.25586281
Ag      24.39658969      22.34921735      18.27543417
Ag      24.36261317      22.33282638      22.31606506
Ag       2.33229429       0.30058627       2.25435342
Ag       2.28501761       0.23662195       6.32554926
Ag       2.31224417       0.22076840      10.36779594
Ag       2.37476104       0.21878595      14.30666076
Ag       2.34523779       0.23105241      18.26430843
Ag       2.36311511       0.22884632      22.27340321
Ag       2.35391334      24.40142346       2.36294978
Ag       2.33232222      24.39206094       6.37314049
Ag       2.34436300      24.38741809      10.34799384
Ag       2.28530069      24.36287723      14.27903774
Ag       2.25777720      24.35054940      18.28548708
Ag       2.27918655      24.28443619      22.34344848
Ag       6.35854923       0.26867642       2.25494927
Ag       6.34048511       0.18955725       6.33829531
Pt       6.41837205       0.18189434      10.38122412
Pt       6.38045752       0.19738569      14.31552175
Pt       6.40649983       0.22245932      18.22623891
Ag       6.37163832       0.23449439      22.28856463
Ag       6.36384345      24.40082970       2.34891768
Pt       6.39312492      24.40903878       6.41310359
Pt       6.36804683      24.43005344      10.32067681
Pt       6.41293476      24.44417734      14.24858301
Ag       6.33234272      24.43555369      18.29084136
Ag       6.33465523      24.34967486      22.36820181
Ag      10.34106726       0.27335763       2.27421981
Pt      10.36684841       0.18708570       6.41559738
Pt      10.33686893       0.16130043      10.37612845
Pt      10.31856202       0.16757585      14.31294044
Pt      10.31671156       0.20115586      18.24978142
Ag      10.32769430       0.22535752      22.25539688
Ag      10.32040423      24.41252115       2.37951889
Pt      10.31128335      24.43451127       6.38177947
Pt      10.31622161      24.46781426      10.31588489
Pt      10.33711705      24.47392370      14.25087096
Pt      10.36728236      24.44861146      18.21230881
Ag      10.33946914      24.35922138      22.35164484
Ag      14.23388325       0.25162107       2.27065470
Pt      14.23734131       0.18427487       6.41252212
Pt      14.26036056       0.16248893      10.36707934
Pt      14.25580132       0.16409934      14.29490703
Pt      14.25065050       0.18846378      18.20978157
Ag      14.25995931       0.22802154      22.31533217
Ag      14.26167581      24.40722897       2.31370024
Pt      14.24953536      24.44839974       6.41643249
Pt      14.25529266      24.47153230      10.33212927
Pt      14.26297629      24.47272661      14.25810300
Pt      14.24261633      24.45025528      18.20970706
Ag      14.24183955      24.38529624      22.34759288
Ag      18.27267170       0.23373038       2.27227202
Ag      18.26913663       0.18272570       6.33719995
Pt      18.20056691       0.18025990      10.38045953
Pt      18.20825565       0.18375086      14.26177754
Ag      18.28586989       0.18993477      18.28920209
Ag      18.28274543       0.23558530      22.34941955
Ag      18.30427877      24.38642965       2.28258613
Ag      18.29236862      24.43702510       6.33647445
Pt      18.21328393      24.44287345      10.36242142
Pt      18.21366649      24.44686535      14.23646316
Ag      18.28360544      24.44743615      18.27597832
Ag      18.28224283      24.40032696      22.34258811
Ag      22.31600964       0.25975513       2.30020636
Ag      22.33635573       0.22450606       6.34322564
Ag      22.32070219       0.22595530      10.36391477
Ag      22.32667896       0.23139294      14.26876151
Ag      22.34930833       0.23623095      18.28910636
Ag      22.32636073       0.27132848      22.32924971
Ag      22.37567852      24.31842164       2.32822077
Ag      22.37435405      24.35374185       6.35460050
Ag      22.35197477      24.35351103      10.33780153
Ag      22.35273624      24.37824160      14.23264601
Ag      22.35132695      24.39670107      18.27145319
Ag      22.32682628      24.36870400      22.31534710
Ag       2.35569151       2.35961378       0.22859546
Ag       2.33570319       2.25659175      24.33062784
Ag       2.33722454       6.36801937       0.23297762
Ag       2.28216740       6.33142418      24.38856145
Ag       2.36935528      10.32470112       0.22093140
Ag       2.28764276      10.39382935      24.38719484
Ag       2.31035110      14.26292242       0.22104855
Ag       2.35302611      14.31998070      24.36730400
Ag       2.28515128      18.30542165       0.23642437
Ag       2.31675965      18.23732287      24.35986052
Ag       2.33217902      22.37729764       0.30228969
Ag       2.30591608      22.22983118      24.36422370
Ag       6.36595722       2.34567370       0.23030439
Ag       6.36110691       2.26146897      24.36469590
Pt       6.39984388       6.40559452       0.22031011
Ag       6.33582183       6.34861001      24.44142191
Pt       6.37498541      10.31407905       0.19660144
Pt       6.41293102      10.38887257      24.44483533
Pt       6.41564089      14.24867407       0.18061438
Pt       6.37821832      14.31626344      24.42680239
Ag       6.33919599      18.29234837       0.18888709
Pt       6.40196317      18.22430122      24.40196120
Ag       6.35626585      22.37695915       0.26995983
Ag       6.34709745      22.27767647      24.38711952
Ag      10.32400767       2.37945085       0.21846692
Ag      10.34266186       2.28331726      24.36078286
Pt      10.31149636       6.38158603       0.19666858
Pt      10.36885710       6.42218776      24.44555701
Pt      10.31343165      10.31583067       0.16354738
Pt      10.34117153      10.37848852      24.46998757
Pt      10.33224715      14.25250996       0.15873094
Pt      10.32443820      14.31324787      24.46390949
Pt      10.36351792      18.21472980       0.18363687
Pt      10.32052510      18.25251309      24.42912688
Ag      10.33693879      22.35734706       0.27233400
Ag      10.32677344      22.25830455      24.40375050
Ag      14.25814774       2.31962481       0.21967810
Ag      14.23806698       2.27948006      24.38111562
Pt      14.24911806       6.42289413       0.18153344
Pt      14.24305355       6.41752832      24.44558653
Pt      14.25240474      10.33373449       0.15882129
Pt      14.26649718      10.36918137      24.46752482
Pt      14.25577019      14.25985135       0.15733025
Pt      14.26115305      14.29696919      24.46481009
Pt      14.23405786      18.21793986       0.18097321
Pt      14.25519507      18.21315181      24.44144922
Ag      14.23641717      22.35949559       0.25000957
Ag      14.26522807      22.31960113      24.40003092
Ag      18.27943259       2.28223978       0.22814409
Ag      18.27950080       2.28027312      24.39577825
Ag      18.29030377       6.34642390       0.18498403
Ag      18.27705336       6.34261532      24.44427240
Pt      18.21441419      10.37210556       0.18288685
Pt      18.20677883      10.38355058      24.44616408
Pt      18.20283547      14.24638239       0.18215258
Pt      18.21185631      14.26510665      24.44356368
Ag      18.27575177      18.28812798       0.18546390
Ag      18.28792433      18.29332368      24.43693497
Ag      18.29723676      22.34629434       0.24105429
Ag      18.28567609      22.35498887      24.38956475
Ag      22.32192333       2.29771198       0.26650092
Ag      22.32446267       2.30702621      24.36508319
Ag      22.35151322       6.34100156       0.23737186
Ag      22.34568602       6.34893309      24.39832009
Ag      22.35116579      10.38164663       0.25025585
Ag      22.32703355      10.36846460      24.39718156
Ag      22.34382915      14.27675380       0.26771926
Ag      22.32921384      14.27305233      24.39433308
Ag      22.36388388      18.25970409       0.26188142
Ag      22.34954919      18.29388663      24.39006922
Ag      22.37120583      22.28735419       0.29663898
Ag      22.32705881      22.33475468      24.35292029
Ag       4.29586267       4.30056815       4.30611738
Ag       4.25982076       4.26328204       8.33175425
Ag       4.26416793       4.27267688      12.32049849
Ag       4.26809239       4.28968940      16.31239206
Ag       4.30042102       4.30730680      20.33096383
Ag       4.26313430       8.31841757       4.29127106
Ag       4.22290447       8.30346822       8.31676115
Ag       4.23463083       8.31221320      12.31660199
Ag       4.22776392       8.31578815      16.32675609
Ag       4.26278718       8.33307469      20.36475007
Ag       4.26229750      12.31031181       4.27349957
Ag       4.23409036      12.31567461       8.31291396
Ag       4.23481404      12.31695317      12.31725823
Ag       4.24579623      12.31553776      16.31629912
Ag       4.27256955      12.31916839      20.35065071
Ag       4.26085793      16.29876260       4.26256094
Ag       4.22642877      16.31355534       8.30348324
Ag       4.24500607      16.31631684      12.31535672
Ag       4.26425397      16.31951822      16.30649833
Ag       4.28903216      16.30895956      20.33146858
Ag       4.29635596      20.32406855       4.30144201
Ag       4.26451766      20.33669298       8.31935021
Ag       4.27017039      20.35079803      12.30843052
Ag       4.28257759      20.35852875      16.29647838
Ag       4.30705911      20.31745864      20.31351549
Ag       8.31485625       4.27179431       4.28951114
Ag       8.29844184       4.23385708       8.31757656
Ag       8.30204314       4.25415182      12.32131823
Ag       8.30513572       4.27616399      16.32381421
Ag       8.31823452       4.29330993      20.36040500
Ag       8.30085592       8.30522794       4.27469055
Ag       8.28333156       8.28799265       8.29856496
Ag       8.28305152       8.29052158      12.31209686
Ag       8.28827913       8.29751401      16.33922417
Ag       8.30222639       8.31915177      20.39745381
Ag       8.29991489      12.30640120       4.25299787
Ag       8.28265866      12.31363188       8.29081297
Ag       8.28940479      12.31096266      12.31167711
Ag       8.29293544      12.30780020      16.33429833
Ag       8.31107587      12.31882087      20.37618089
Ag       8.29828615      16.31171117       4.23323163
Ag       8.28693431      16.32902963       8.28714593
Ag       8.29229150      16.33444517      12.31023590
Ag       8.29934405      16.33720469      16.32649146
Ag       8.31804743      16.32173526      20.35472230
Ag       8.31460905      20.34161488       4.27195264
Ag       8.30325319      20.35667946       8.30571443
Ag       8.30811280      20.37798092      12.30372005
Ag       8.31110153      20.39875875      16.30867684
Ag       8.32442700      20.36035113      20.33897130
Ag      12.30914966       4.27024293       4.27425018
Ag      12.31083275       4.24195206       8.31532718
Ag      12.30956445       4.24457337      12.32264084
Ag      12.31067171       4.25732841      16.32603656
Ag      12.31155541       4.27962901      20.36117068
Ag      12.30663401       8.30167503       4.25379290
Ag      12.31555674       8.28153582       8.29169921
Ag      12.31735087       8.28799432      12.31475309
Ag      12.32007245       8.29139598      16.34411035
Ag      12.31531580       8.31686497      20.38727846
Ag      12.30507201      12.30307356       4.24140809
Ag      12.31450561      12.30942737       8.28841207
Ag      12.31934845      12.31003013      12.31298030
Ag      12.32043575      12.31289676      16.33756781
Ag      12.31478367      12.32178900      20.38456140
Ag      12.30720905      16.31235399       4.23865545
Ag      12.31524360      16.33458014       8.28187465
Ag      12.31737602      16.33751613      12.31134328
Ag      12.32064702      16.34420320      16.33447563
Ag      12.31474216      16.32725030      20.37224983
Ag      12.30601876      20.35619380       4.26704366
Ag      12.30746487      20.37632570       8.30089294
Ag      12.30967955      20.38854185      12.30392751
Ag      12.31419663      20.39138598      16.31067509
Ag      12.31504691      20.36491694      20.35037001
Ag      16.30093600       4.26479038       4.26529740
Ag      16.31932075       4.22977860       8.30472361
Ag      16.31849293       4.24358152      12.31934648
Ag      16.32351380       4.23924004      16.32997131
Ag      16.30462048       4.27140873      20.36458702
Ag      16.31984883       8.29752881       4.23385178
Ag      16.33856082       8.28113820       8.28736415
Ag      16.34480553       8.28149961      12.31522064
Ag      16.34374293       8.28858617      16.34370796
Ag      16.32409106       8.30762260      20.39741247
Ag      16.31002094      12.30459905       4.23939208
Ag      16.33518973      12.30650041       8.28256214
Ag      16.33875737      12.31089707      12.31421596
Ag      16.34560692      12.31503407      16.34391176
Ag      16.32143920      12.32077514      20.38330229
Ag      16.30731864      16.31987256       4.22508756
Ag      16.32767287      16.33678113       8.28315574
Ag      16.33587933      16.34344610      12.31424291
Ag      16.34022363      16.34534237      16.33838129
Ag      16.32430543      16.33289521      20.38753226
Ag      16.29486056      20.36189305       4.26002608
Ag      16.31068055      20.39382891       8.29667267
Ag      16.31265853      20.38831578      12.30841090
Ag      16.32151272      20.40267744      16.31834577
Ag      16.30533024      20.36936395      20.35472068
Ag      20.32726970       4.28794584       4.29330732
Ag      20.35323635       4.25975714       8.32001325
Ag      20.35566887       4.26476511      12.31429332
Ag      20.36004763       4.26934789      16.30985118
Ag      20.33266220       4.29858268      20.33808578
Ag      20.35675080       8.31673009       4.26733875
Ag      20.38533885       8.29946123       8.30070829
Ag      20.37885115       8.30576674      12.31093418
Ag      20.39058123       8.30521863      16.32509595
Ag      20.35901626       8.32468673      20.36393412
Ag      20.34741898      12.30986249       4.26732999
Ag      20.36774883      12.31396170       8.30251725
Ag      20.37812936      12.31711176      12.30818768
Ag      20.37974784      12.31750138      16.31932888
Ag      20.35812092      12.31897141      20.36024452
Ag      20.33259761      16.30336409       4.26509516
Ag      20.34920192      16.31808871       8.30258656
Ag      20.36851684      16.32285207      12.30848169
Ag      20.38727077      16.32960937      16.32060065
Ag      20.35949725      16.31431158      20.35720112