1099
Properties=species:S:1:pos:R:3 Geometry=T Step:=T 115=T pbc="F F F"
Ag       0.27500769       0.28244795       0.28456082
Ag       0.25574231       0.26221668       4.25844739
Ag       0.23886570       0.23820862       8.27911232
Ag       0.22984475       0.22342358      12.31753365
Ag       0.24404891       0.23345723      16.35238296
Ag       0.27490517       0.24837707      20.36588331
Ag       0.29905492       0.26181363      24.33571853
Ag       0.25600099       4.25695788       0.26349623
Ag       0.18559045       4.26661762       4.26746084
Ag       0.15817004       4.25200117       8.30370798
Ag       0.15629309       4.23879488      12.31723588
Ag       0.16396631       4.24716741      16.33005670
Ag       0.19718549       4.25488443      20.36316398
Ag       0.26914699       4.24240198      24.36174389
Ag       0.23888128       8.27838304       0.23879379
Ag       0.15826865       8.30325695       4.25235674
Ag       0.14393870       8.33195484       8.33206852
Pt       0.14120495       8.41034099      12.31723575
Ag       0.14807993       8.32159719      16.30618691
Ag       0.16187657       8.29581265      20.37638207
Ag       0.23981487       8.27022681      24.38395642
Ag       0.22979274      12.31713230       0.22367354
Ag       0.15632741      12.31713058       4.23886275
Pt       0.14116812      12.31738568       8.41021345
Pt       0.17444569      12.34400331      12.34383418
Pt       0.15064554      12.31101127      16.21442840
Ag       0.15468734      12.31394773      20.38189470
Ag       0.22333095      12.31267466      24.39674297
Ag       0.24365580      16.35234294       0.23342747
Ag       0.16389568      16.33017526       4.24709996
Ag       0.14800671      16.30630934       8.32147420
Pt       0.15055385      16.21459335      12.31082365
Pt       0.14573519      16.27403843      16.27413945
Ag       0.16209271      16.31970164      20.36129020
Ag       0.23256322      16.34839411      24.38524996
Ag       0.27434813      20.36600215       0.24833382
Ag       0.19697686      20.36335085       4.25479267
Ag       0.16188657      20.37647612       8.29568226
Ag       0.15474857      20.38181578      12.31400576
Ag       0.16221098      20.36087791      16.32009207
Ag       0.18139046      20.34752009      20.34830956
Ag       0.24675445      20.36144394      24.35599124
Ag       0.29876778      24.33603530       0.26156302
Ag       0.26874582      24.36195443       4.24233654
Ag       0.23974502      24.38419621       8.27032151
Ag       0.22336397      24.39644316      12.31304616
Ag       0.23276624      24.38467214      16.34903571
Ag       0.24689368      24.35459840      20.36281357
Ag       0.25763379      24.33019373      24.33215665
Ag       4.24895921       0.26112878       0.26301471
Ag       4.25902750       0.19076642       4.26535160
Ag       4.24959615       0.16116030       8.30109050
Ag       4.24564036       0.15567097      12.31692859
Ag       4.26741245       0.16365716      16.32223581
Ag       4.28146863       0.18414877      20.35123298
Ag       4.26806214       0.25097786      24.35899462
Ag       4.25873711       4.26389021       0.19199680
Ag       4.26933864       4.25885782      24.43428518
Ag       4.24929370       8.30042787       0.16179280
Ag       4.25114299       8.29807611      24.46624137
Ag       4.24526734      12.31671636       0.15577602
Ag       4.23768936      12.31308011      24.47078489
Ag       4.26694820      16.32231466       0.16340470
Ag       4.24645459      16.32697963      24.46469907
Ag       4.28084659      20.35144403       0.18381049
Ag       4.25391920      20.36053592      24.43241071
Ag       4.26718874      24.35947836       0.25044470
Ag       4.26884010      24.43459047       4.25859691
Ag       4.25085975      24.46644705       8.29803479
Ag       4.23754353      24.47061190      12.31329328
Ag       4.24624777      24.46403690      16.32762146
Ag       4.25367484      24.43118130      20.36190168
Ag       4.24008182      24.35850814      24.36022410
Ag       8.26920714       0.23881917       0.23981872
Ag       8.29563459       0.16076577       4.25175668
Ag       8.32134481       0.14891679       8.32365471
Pt       8.41298680       0.15256757      12.31174457
Pt       8.35363140       0.14791585      16.27487068
Ag       8.30816306       0.16451608      20.36245013
Ag       8.28074110       0.23591220      24.38726602
Ag       8.29491447       4.25078393       0.16142294
Ag       8.30320672       4.24981628      24.46588752
Ag       8.32033988       8.32301694       0.14916229
Ag       8.33114980       8.32947197      24.48192632
Pt       8.41222420      12.31169699       0.15216462
Pt       8.40960298      12.31485583      24.48633666
Pt       8.35286487      16.27515087       0.14717149
Ag       8.32096443      16.30401628      24.48046133
Ag       8.30730270      20.36308936       0.16377542
Ag       8.29599865      20.37557077      24.46522190
Ag       8.27964868      24.38781792       0.23522565
Ag       8.30241212      24.46649169       4.24911120
Ag       8.33062207      24.48245849       8.32912564
Pt       8.40902668      24.48654819      12.31491484
Ag       8.32011121      24.48012370      16.30464831
Ag       8.29537481      24.46452605      20.37650436
Ag       8.27063393      24.38381610      24.38474783
Ag      12.30836077       0.22543965       0.22497922
Ag      12.30950820       0.15516586       4.23970805
Pt      12.30989280       0.14304997       8.41020092
Pt      12.28320500       0.17688649      12.34315409
Pt      12.31620503       0.15243245      16.21330352
Ag      12.31274559       0.15570592      20.38049356
Ag      12.31515867       0.22341338      24.39611886
Ag      12.30878655       4.23957178       0.15492440
Ag      12.31677161       4.23857613      24.46974492
Pt      12.30885282       8.40969357       0.14245803
Pt      12.31711265       8.40969447      24.48521030
Pt      12.28205998      12.34301019       0.17564080
Pt      12.34386361      12.34302206      24.45272655
Pt      12.31523576      16.21381447       0.15092605
Pt      12.31086145      16.21379236      24.47679087
Ag      12.31240025      20.38153927       0.15464903
Ag      12.31428243      20.38248339      24.47001272
Ag      12.31523082      24.39640191       0.22308487
Ag      12.31646315      24.47060815       4.23744195
Pt      12.31631238      24.48647709       8.40913021
Pt      12.34296558      24.45370742      12.34315543
Pt      12.31003363      24.47716527      16.21435740
Ag      12.31370238      24.47006619      20.38269324
Ag      12.31352682      24.39838729      24.39806523
Ag      16.34667604       0.23771930       0.23627973
Ag      16.32219510       0.15920520       4.25028633
Ag      16.29358330       0.14661222       8.33022628
Pt      16.21611269       0.14303168      12.31482224
Ag      16.30491766       0.14884784      16.30267534
Ag      16.32979315       0.16027798      20.37249609
Ag      16.35465106       0.23580682      24.38174307
Ag      16.32218671       4.25109836       0.15828840
Ag      16.33029837       4.24873414      24.46383395
Ag      16.29331191       8.33010297       0.14550232
Ag      16.30625556       8.32260945      24.47865490
Pt      16.21536764      12.31485292       0.14167988
Pt      16.21501650      12.31171523      24.47599960
Ag      16.30456207      16.30358574       0.14709176
Pt      16.27483284      16.27563240      24.48043531
Ag      16.33100731      20.37347677       0.15985241
Ag      16.31949701      20.36432919      24.46050412
Ag      16.35782331      24.38073220       0.23671669
Ag      16.33158700      24.46396044       4.24763977
Ag      16.30602073      24.48000637       8.32160491
Pt      16.21438320      24.47703437      12.31169767
Pt      16.27475559      24.48106373      16.27578957
Ag      16.31959772      24.46098412      20.36378354
Ag      16.34523273      24.38952625      24.38838745
Ag      20.36415530       0.25835169       0.25700924
Ag      20.35529009       0.18719822       4.26258117
Ag      20.37130035       0.15846017       8.29892597
Ag      20.38639686       0.15532169      12.31303714
Ag      20.37867457       0.16169702      16.32606272
Ag      20.36840829       0.19067002      20.35986131
Ag      20.37709966       0.25929214      24.36114495
Ag      20.35672416       4.26369660       0.18725088
Ag      20.36672824       4.26188971      24.43423870
Ag      20.37297227       8.29996151       0.15942062
Ag      20.37682631       8.29955148      24.46590639
Ag      20.38709203      12.31336515       0.15648834
Ag      20.38204424      12.31698856      24.47165154
Ag      20.37960190      16.32606320       0.16271976
Ag      20.36113620      16.32418670      24.46243925
Ag      20.37287227      20.35845472       0.19364631
Ag      20.34537962      20.35618714      24.43797501
Ag      20.38625197      24.35649369       0.26376860
Ag      20.37132949      24.43088355       4.26314280
Ag      20.37790718      24.46444026       8.29945703
Ag      20.38292277      24.47011576      12.31658482
Ag      20.36289694      24.46105980      16.32328150
Ag      20.34684457      24.43755840      20.35537499
Ag      20.35296614      24.36669227      24.36580301
Ag      24.33609979       0.27671822       0.27734570
Ag      24.35839163       0.25599136       4.25123038
Ag      24.38346869       0.23564171       8.27109254
Ag      24.40085911       0.22546657      12.31048224
Ag      24.39231342       0.24098661      16.34922247
Ag      24.37267935       0.26325617      20.36801173
Ag      24.35256433       0.28229131      24.34083560
Ag      24.35989562       4.25163921       0.25790341
Ag      24.43098113       4.25919642       4.26014373
Ag      24.46282383       4.24793607       8.29543228
Ag      24.47105920       4.23938042      12.30905078
Ag      24.46938955       4.25342048      16.32349180
Ag      24.44117267       4.26768955      20.35988564
Ag      24.36966236       4.25615814      24.36417251
Ag      24.38628067       8.27340535       0.24016775
Ag      24.46332082       8.29637796       4.24978268
Ag      24.47621140       8.32037318       8.32024214
Pt      24.48395007       8.40904719      12.30887501
Ag      24.48183781       8.33126478      16.29424738
Ag      24.46777077       8.30256189      20.37521735
Ag      24.38653076       8.27735397      24.38938068
Ag      24.40283389      12.31272077       0.23001745
Ag      24.47055500      12.31293235       4.24508849
Pt      24.47451280      12.30916107       8.41163693
Pt      24.45160389      12.34198666      12.28200213
Pt      24.48583856      12.31558817      16.21598604
Ag      24.47061749      12.31613839      20.38829860
Ag      24.39634107      12.31717693      24.40324654
Ag      24.39412091      16.34724243       0.24265083
Ag      24.46397742      16.31891923       4.26607768
Pt      24.48048731      16.27316941       8.35211077
Pt      24.47637716      16.21314819      12.31525509
Ag      24.47986435      16.30497886      16.30505459
Ag      24.46311570      16.33066676      20.37922673
Ag      24.38236676      16.35540380      24.39097510
Ag      24.37996358      20.36046151       0.27152001
Ag      24.44415632      20.34834534       4.27887875
Ag      24.46255544      20.36218570       8.30702817
Ag      24.47022270      20.38224433      12.31229170
Ag      24.46363162      20.37709739      16.32991335
Ag      24.42723288      20.36750233      20.36873507
Ag      24.34902812      20.37506964      24.37151621
Ag      24.36740819      24.32965396       0.29313289
Ag      24.37707476      24.35544069       4.26348514
Ag      24.38860702      24.38712451       8.27921813
Ag      24.39837325      24.39835294      12.31495023
Ag      24.38522837      24.38600557      16.35326974
Ag      24.35041149      24.36929460      20.37497796
Ag      24.31836942      24.35074623      24.35172533
Ag       0.20993099       2.25385539       2.25532685
Ag       0.18628160       2.23286002       6.27734650
Ag       0.17149875       2.20839824      10.30467924
Ag       0.17468706       2.20690061      14.32966394
Ag       0.19731435       2.22459532      18.35331054
Ag       0.22757923       2.23794597      22.37031026
Ag       0.18647540       6.27650574       2.23361168
Ag       0.14939021       6.29035754       6.29075592
Ag       0.14689059       6.29495144      10.32914266
Ag       0.15010175       6.29239618      14.30518563
Ag       0.15651428       6.28089691      18.34393559
Ag       0.19402224       6.26568355      22.39359995
Ag       0.17146498      10.30428930       2.20868727
Ag       0.14688576      10.32906334       6.29502954
Pt       0.15930365      10.39066635      10.39053866
Pt       0.16228354      10.37565283      14.25520960
Ag       0.14886188      10.32328988      18.33292632
Ag       0.17089067      10.29865905      22.41439042
Ag       0.17462320      14.32956861       2.20693083
Ag       0.15009313      14.30528137       6.29232815
Pt       0.16212872      14.25539915      10.37545829
Pt       0.16761857      14.30441627      14.30425564
Ag       0.15644226      14.29442264      18.32303420
Ag       0.16874941      14.32629114      22.41146059
Ag       0.19699178      18.35338469       2.22449233
Ag       0.15645174      18.34402977       6.28080930
Ag       0.14885815      18.33300550      10.32316761
Ag       0.15638314      18.32296075      14.29446051
Ag       0.16042158      18.32557358      18.32595184
Ag       0.18147865      18.34257570      22.38513801
Ag       0.22712548      22.37058281       2.23778093
Ag       0.19385891      22.39385091       6.26566519
Ag       0.17095330      22.41440210      10.29870158
Ag       0.16884382      22.41113368      14.32663320
Ag       0.18166082      22.38434177      18.34330403
Ag       0.20103327      22.36038013      22.36183479
Ag      24.40376062       2.24732446       2.24817621
Ag      24.43164087       2.22788777       6.26951557
Ag      24.45358938       2.20767173      10.29602793
Ag      24.45740974       2.21061649      14.32310537
Ag      24.44207050       2.23495051      18.35015200
Ag      24.41704811       2.25437384      22.37124311
Ag      24.43282411       6.26982300       2.23022088
Ag      24.46925138       6.28162101       6.28197838
Ag      24.47615623       6.29183233      10.32088775
Ag      24.47929709       6.29485939      14.29711576
Ag      24.47693026       6.29076729      18.33629814
Ag      24.43964232       6.27615176      22.39436554
Ag      24.45447503      10.29888450       2.21197476
Ag      24.47560779      10.32215798       6.29369683
Pt      24.46277177      10.37368669      10.37084539
Pt      24.46634794      10.38917119      14.23545742
Ag      24.47944494      10.32792653      18.33182544
Ag      24.45445303      10.30330293      22.41907975
Ag      24.45751433      14.32526235       2.21610534
Ag      24.46924766      14.29320885       6.30366058
Pt      24.45880554      14.30289770      10.32167213
Pt      24.46489919      14.25345108      14.25068084
Ag      24.47760854      14.30411052      18.33442617
Ag      24.45223457      14.32976143      22.41962241
Ag      24.44466462      18.34204417       2.24264804
Ag      24.46538329      18.32584059       6.30099365
Ag      24.46953528      18.32270419      10.33172143
Ag      24.47707070      18.33230521      14.30296232
Ag      24.47000285      18.34467621      18.34528013
Ag      24.42846249      18.35739595      22.39955257
Ag      24.42445733      22.36061663       2.26463816
Ag      24.44236014      22.38620263       6.28405282
Ag      24.45469941      22.41317937      10.30114100
Ag      24.45318009      22.41495484      14.32698549
Ag      24.42961704      22.39690755      18.35734782
Ag      24.39393829      22.37975582      22.38093017
Ag       2.24614084       0.21634065       2.25464768
Ag       2.22891429       0.19032982       6.27566693
Ag       2.21163717       0.17105270      10.30366336
Ag       2.21676338       0.16939784      14.32956578
Ag       2.24478906       0.18317654      18.34612698
Ag       2.26895950       0.20423721      22.36514972
Ag       2.26244983      24.40570402       2.23982142
Ag       2.23434907      24.43525902       6.26766492
Ag       2.20767114      24.45392624      10.29922373
Ag       2.20617692      24.45285582      14.32619809
Ag       2.22359088      24.43138571      18.35086614
Ag       2.23561782      24.40140161      22.36826016
Ag       6.26845300       0.18978497       2.23352082
Ag       6.28211449       0.15422032       6.28632075
Ag       6.29438163       0.15027558      10.32589335
Ag       6.30490249       0.15803119      14.29610053
Ag       6.30263161       0.16280235      18.32785038
Ag       6.28632879       0.18508240      22.38756520
Ag       6.27882405      24.43502733       2.22713015
Ag       6.28931555      24.47446065       6.28597155
Ag       6.29350105      24.47972349      10.32534935
Ag       6.29096725      24.47787441      14.30236211
Ag       6.27995873      24.47155350      18.34271341
Ag       6.26504742      24.43281772      22.39360600
Ag      10.29560679       0.17088202       2.20979295
Ag      10.32199028       0.14921400       6.29404933
Pt      10.37237645       0.16413975      10.37605633
Pt      10.32301504       0.16947085      14.30435177
Ag      10.33280451       0.15827921      18.32290553
Ag      10.30149133       0.17048478      22.41181714
Ag      10.30307446      24.45418481       2.20737937
Ag      10.32809722      24.47921385       6.29288488
Pt      10.38947780      24.46793209      10.38866343
Pt      10.37406686      24.46581314      14.25391060
Ag      10.32232771      24.47774806      18.33264668
Ag      10.29924469      24.45338909      22.41551778
Ag      14.32215290       0.17061930       2.20825330
Ag      14.29737410       0.14839002       6.29421932
Pt      14.23596155       0.16189904      10.38943092
Pt      14.25124613       0.16401248      14.25302605
Ag      14.30307205       0.14978814      18.33018130
Ag      14.32767489       0.17000459      22.41188175
Ag      14.32983137      24.45248160       2.20608001
Ag      14.30500364      24.47826700       6.29151515
Pt      14.25473415      24.46566261      10.37517563
Pt      14.30418132      24.46044769      14.30513416
Ag      14.29435019      24.46929202      18.32412458
Ag      14.32559997      24.45422775      22.41277914
Ag      18.34716054       0.18762833       2.22966763
Ag      18.33361616       0.15132584       6.28747464
Ag      18.33021115       0.14793757      10.32605563
Ag      18.33387580       0.14975537      14.30162469
Ag      18.34462696       0.15419982      18.33946582
Ag      18.35757441       0.18845471      22.39032390
Ag      18.36130453      24.43138302       2.23008712
Ag      18.34572047      24.47141898       6.28295709
Ag      18.33320919      24.47729628      10.32510058
Ag      18.32385550      24.46952352      14.29681533
Ag      18.32679582      24.46277155      18.32946570
Ag      18.34008627      24.43746984      22.39027367
Ag      22.36615225       0.21176722       2.24890842
Ag      22.38855050       0.18611453       6.27109939
Ag      22.41485847       0.16964155      10.29839891
Ag      22.41908474       0.17204268      14.32527553
Ag      22.39998377       0.19138322      18.35069534
Ag      22.38136716       0.21600189      22.37066608
Ag      22.38934928      24.40079563       2.25684366
Ag      22.39996957      24.43219867       6.27541829
Ag      22.41560002      24.45372083      10.30263370
Ag      22.41319531      24.45393632      14.32877197
Ag      22.38479850      24.43798894      18.34975332
Ag      22.35480280      24.41305244      22.37442520
Ag       2.24614529       2.25272026       0.21808245
Ag       2.26298111       2.24002349      24.40544490
Ag       2.22887448       6.27460169       0.19128600
Ag       2.23465537       6.26773519      24.43499199
Ag       2.21144576      10.30317597       0.17137565
Ag       2.20775466      10.29903925      24.45395886
Ag       2.21647168      14.32944885       0.16942215
Ag       2.20620581      14.32578816      24.45324179
Ag       2.24426463      18.34620751       0.18300006
Ag       2.22359033      18.34983287      24.43238623
Ag       2.26835883      22.36534905       0.20398582
Ag       2.23564789      22.36649659      24.40309419
Ag       6.26813750       2.23206088       0.19106615
Ag       6.27969669       2.22774053      24.43445299
Ag       6.28144412       6.28532584       0.15496245
Ag       6.28987094       6.28623071      24.47404489
Ag       6.29381788      10.32557058       0.15039277
Ag       6.29385459      10.32538153      24.47951311
Ag       6.30432453      14.29613081       0.15771193
Ag       6.29137482      14.30202759      24.47805126
Ag       6.30196087      18.32808053       0.16230699
Ag       6.28053017      18.34177043      24.47230502
Ag       6.28540244      22.38809485       0.18445100
Ag       6.26532368      22.39225272      24.43404887
Ag      10.29509481       2.20934252       0.17122387
Ag      10.30383465       2.20819827      24.45360236
Ag      10.32096564       6.29343245       0.14950617
Ag      10.32870437       6.29372487      24.47827488
Pt      10.37123477      10.37559808       0.16370039
Pt      10.39012377      10.38895936      24.46728816
Pt      10.32219502      14.30464072       0.16857334
Pt      10.37504075      14.25342258      24.46555680
Ag      10.33204384      18.32365709       0.15714053
Ag      10.32319222      18.33201636      24.47814337
Ag      10.30072491      22.41255321       0.16980593
Ag      10.29967512      22.41505195      24.45379922
Ag      14.32187752       2.20909957       0.16968108
Ag      14.32909301       2.20687014      24.45219239
Ag      14.29675289       6.29411980       0.14744316
Ag      14.30511144       6.29271570      24.47711675
Pt      14.23503694      10.38905242       0.16059254
Pt      14.25553857      10.37566557      24.46446970
Pt      14.25025011      14.25343227       0.16250165
Pt      14.30483528      14.30463978      24.45943111
Ag      14.30288231      18.33129216       0.14837566
Ag      14.29478680      18.32393048      24.46874450
Ag      14.32838731      22.41258454       0.16954310
Ag      14.32580616      22.41341039      24.45355494
Ag      18.34753664       2.23107941       0.18677357
Ag      18.35684412       2.22932676      24.43340825
Ag      18.33446920       6.28821821       0.15091769
Ag      18.34431116       6.28381610      24.47194358
Ag      18.33043801      10.32611953       0.14756987
Ag      18.33324108      10.32541675      24.47776922
Ag      18.33369063      14.30188072       0.14983726
Ag      18.32349863      14.29686167      24.46962656
Ag      18.34590725      18.34020038       0.15433524
Ag      18.32585371      18.33001165      24.46280344
Ag      18.36197437      22.38943339       0.19026004
Ag      18.33965702      22.39133871      24.43699516
Ag      22.36711714       2.24946914       0.21197517
Ag      22.38001726       2.25125668      24.40781910
Ag      22.39091835       6.27244739       0.18786880
Ag      22.39662208       6.27332207      24.43615550
Ag      22.41711990      10.30021681       0.17213649
Ag      22.41469568      10.30268123      24.45636991
Ag      22.41981611      14.32520966       0.17428117
Ag      22.41082700      14.33052360      24.45686078
Ag      22.40313065      18.34848088       0.19486836
Ag      22.38243030      18.35087951      24.44006964
Ag      22.39060760      22.36483761       0.22264504
Ag      22.35388647      22.37458392      24.41365794
Ag       4.25232354       4.25835809       4.25926871
Ag       4.23030241       4.23593844       8.29659678
Ag       4.22438908       4.22726421      12.31415122
Ag       4.23772298       4.23405846      16.33255028
Ag       4.26344392       4.25428964      20.36851022
Ag       4.23023741       8.29625292       4.23629551
Ag       4.20555731       8.28690611       8.28694720
Ag       4.20907771       8.28214062      12.31512016
Ag       4.21108183       8.28464081      16.34518262
Ag       4.23600963       8.29422749      20.39495947
Ag       4.22434711      12.31424157       4.22725384
Ag       4.20908473      12.31533095       8.28200505
Ag       4.23542386      12.31677346      12.31644959
Ag       4.21681955      12.31216544      16.35107197
Ag       4.22608038      12.31206782      20.40279625
Ag       4.23756713      16.33274940       4.23383427
Ag       4.21113365      16.34539065       8.28441991
Ag       4.21684415      16.35119378      12.31196015
Ag       4.21396900      16.34400592      16.34405021
Ag       4.23239100      16.33025560      20.39089904
Ag       4.26315828      20.36883222       4.25394146
Ag       4.23592969      20.39514652       8.29401425
Ag       4.22610370      20.40273563      12.31197490
Ag       4.23236912      20.39046926      16.33058297
Ag       4.25145114      20.36548580      20.36637345
Ag       8.29135231       4.23417268       4.23479600
Ag       8.28137904       4.21216662       8.28387665
Ag       8.27590958       4.21859194      12.31254274
Ag       8.28351905       4.21590100      16.34511751
Ag       8.29851334       4.23554887      20.39240931
Ag       8.28105029       8.28371279       4.21228414
Ag       8.26896779       8.27171365       8.27161230
Ag       8.26769513       8.27054382      12.31337648
Ag       8.27156585       8.27341932      16.35746543
Ag       8.28711610       8.28657044      20.42042656
Ag       8.27569019      12.31259075       4.21827375
Ag       8.26773679      12.31349518       8.27024953
Ag       8.26836847      12.31362103      12.31346769
Ag       8.26977109      12.31343088      16.35879902
Ag       8.28125847      12.31407841      20.41827884
Ag       8.28324153      16.34554228       4.21528100
Ag       8.27155020      16.35783188       8.27301567
Ag       8.26983257      16.35905044      12.31330386
Ag       8.27135596      16.35587252      16.35585719
Ag       8.28288277      16.34256909      20.41732019
Ag       8.29796450      20.39301611       4.23481941
Ag       8.28690262      20.42091868       8.28611584
Ag       8.28111671      20.41847443      12.31403758
Ag       8.28262923      20.41714177      16.34276317
Ag       8.29193721      20.39232736      20.39297847
Ag      12.31025753       4.22464713       4.22460419
Ag      12.31072344       4.21153202       8.28001269
Ag      12.31046426       4.23760161      12.31603171
Ag      12.31567864       4.21860082      16.35039037
Ag      12.31645020       4.22723299      20.40173424
Ag      12.31029365       8.27974998       4.21095512
Ag      12.31230918       8.26866343       8.26863724
Ag      12.31313330       8.26886805      12.31317424
Ag      12.31421246       8.27061240      16.35872749
Ag      12.31631221       8.28197431      20.41731476
Ag      12.30958578      12.31592661       4.23651060
Ag      12.31261888      12.31311001       8.26860408
Ag      12.31306941      12.31323426      12.31315809
Ag      12.31350262      12.31310732      16.35797655
Ag      12.31653212      12.31593317      20.39169477
Ag      12.31452752      16.35101553       4.21720184
Ag      12.31318250      16.35911024       8.27015033
Ag      12.31299974      16.35814806      12.31316915
Ag      12.31256207      16.35717449      16.35721850
Ag      12.31113756      16.34880517      20.41109996
Ag      12.31559798      20.40271533       4.22609354
Ag      12.31521416      20.41848292       8.28126366
Ag      12.31573567      20.39260153      12.31604750
Ag      12.31073331      20.41146284      16.34913319
Ag      12.30999868      20.40012948      20.40024114
Ag      16.32739053       4.23309048       4.23247005
Ag      16.33900620       4.20849570       8.28460748
Ag      16.34627649       4.21158178      12.31378733
Ag      16.34500053       4.21226300      16.34251850
Ag      16.33496735       4.23433096      20.39163999
Ag      16.33798345       8.28418524       4.20726318
Ag      16.35338770       8.26974738       8.26992644
Ag      16.35779356       8.26871908      12.31264754
Ag      16.35779218       8.27171539      16.35470340
Ag      16.34598003       8.28448890      20.41561212
Ag      16.34386352      12.31335084       4.20959944
Ag      16.35591432      12.31239077       8.26773989
Ag      16.35774533      12.31258658      12.31254732
Ag      16.35879975      12.31246291      16.35634941
Ag      16.35135421      12.31184840      20.40976743
Ag      16.34232814      16.34331013       4.21040106
Ag      16.35414768      16.35586979       8.27043636
Ag      16.35694076      16.35724326      12.31270286
Ag      16.35570603      16.35415900      16.35443413
Ag      16.34385830      16.34313511      20.41260506
Ag      16.33407077      20.39240722       4.23334608
Ag      16.34335198      20.41718639       8.28357749
Ag      16.34901979      20.41145591      12.31228194
Ag      16.34290506      20.41352859      16.34366534
Ag      16.32842314      20.39052634      20.39022055
Ag      20.36394950       4.25483652       4.25452086
Ag      20.38884713       4.23156735       8.29314891
Ag      20.40153577       4.22468686      12.31163564
Ag      20.39599729       4.23566072      16.32981001
Ag      20.37398261       4.25813589      20.36741833
Ag      20.38861545       8.29325940       4.23136109
Ag      20.41315504       8.28166357       8.28157240
Ag      20.41545250       8.27959532      12.31061162
Ag      20.42000212       8.28571095      16.33918562
Ag      20.39603876       8.29576417      20.39110627
Ag      20.39892455      12.31118453       4.22430846
Ag      20.40842131      12.31059519       8.27539065
Ag      20.39064586      12.31509055      12.30947917
Ag      20.41778024      12.31378959      16.34456112
Ag      20.40281204      12.31335692      20.40004910
Ag      20.39346671      16.32968645       4.23626442
Ag      20.41264532      16.34275379       8.28198981
Ag      20.41080329      16.34861942      12.31378596
Ag      20.41677706      16.34241029      16.34248199
Ag      20.38999073      16.33175969      20.39267112