1099
Properties=species:S:1:pos:R:3 Geometry=T Step:=T 48=T pbc="F F F"
Ag       0.25707802       0.25707897       0.25707815
Ag       0.24066677       0.24066727       4.23399777
Ag       0.22948932       0.22948957       8.26518928
Ag       0.22902759       0.22902786      12.31306787
Ag       0.22948919       0.22948943      16.36094688
Ag       0.24066676       0.24066677      20.39213959
Ag       0.25707757       0.25707729      24.36905969
Ag       0.24066691       4.23399859       0.24066699
Ag       0.17619841       4.24039569       4.24039522
Ag       0.15540701       4.22657762       8.27123298
Ag       0.15000623       4.21929103      12.31306810
Ag       0.15540720       4.22657743      16.35490373
Ag       0.17619851       4.24039485      20.38574236
Ag       0.24066627       4.23399692      24.38547104
Ag       0.22948971       8.26518998       0.22948976
Ag       0.15540737       8.27123348       4.22657750
Ag       0.12488357       8.26937343       8.26937315
Ag       0.11399959       8.26425133      12.31306789
Ag       0.12488336       8.26937359      16.35676341
Ag       0.15540670       8.27123314      20.39956029
Ag       0.22948817       8.26518928      24.39664911
Ag       0.22902808      12.31306834       0.22902814
Ag       0.15000680      12.31306858       4.21929095
Ag       0.11399982      12.31306836       8.26425111
Ag       0.10230811      12.31306841      12.31306789
Ag       0.11399939      12.31306865      16.36188562
Ag       0.15000553      12.31306862      20.40684689
Ag       0.22902632      12.31306836      24.39711100
Ag       0.22948961      16.36094685       0.22948963
Ag       0.15540770      16.35490381       4.22657730
Ag       0.12488365      16.35676364       8.26937335
Ag       0.11399956      16.36188591      12.31306818
Ag       0.12488331      16.35676404      16.35676378
Ag       0.15540646      16.35490437      20.39956050
Ag       0.22948813      16.36094791      24.39664929
Ag       0.24066698      20.39213911       0.24066701
Ag       0.17619903      20.38574217       4.24039470
Ag       0.15540711      20.39956027       8.27123288
Ag       0.15000596      20.40684689      12.31306814
Ag       0.15540672      20.39956046      16.35490405
Ag       0.17619766      20.38574281      20.38574269
Ag       0.24066578      20.39214065      24.38547163
Ag       0.25707745      24.36905887       0.25707747
Ag       0.24066649      24.38547035       4.23399689
Ag       0.22948850      24.39664861       8.26518907
Ag       0.22902667      24.39711047      12.31306788
Ag       0.22948844      24.39664880      16.36094745
Ag       0.24066592      24.38547146      20.39214035
Ag       0.25707676      24.36906083      24.36906066
Ag       4.23399788       0.24066760       0.24066682
Ag       4.24039541       0.17619879       4.24039505
Ag       4.22657779       0.15540742       8.27123289
Ag       4.21929112       0.15000675      12.31306805
Ag       4.22657734       0.15540762      16.35490354
Ag       4.24039494       0.17619874      20.38574219
Ag       4.23399706       0.24066614      24.38547078
Ag       4.24039551       4.24039591       0.17619863
Ag       4.24039477       4.24039451      24.44993919
Ag       4.22657808       8.27123366       0.15540786
Ag       4.22657675       8.27123313      24.47073109
Ag       4.21929157      12.31306864       0.15000742
Ag       4.21929022      12.31306880      24.47613218
Ag       4.22657773      16.35490362       0.15540814
Ag       4.22657685      16.35490463      24.47073119
Ag       4.24039496      20.38574193       0.17619919
Ag       4.24039461      20.38574295      24.44993986
Ag       4.23399719      24.38546991       0.24066643
Ag       4.24039475      24.44993841       4.24039429
Ag       4.22657700      24.47073052       8.27123280
Ag       4.21929048      24.47613157      12.31306822
Ag       4.22657699      24.47073069      16.35490411
Ag       4.24039466      24.44993969      20.38574257
Ag       4.23399699      24.38547163      24.38547144
Ag       8.26518969       0.22949030       0.22948946
Ag       8.27123350       0.15540779       4.22657727
Ag       8.26937374       0.12488421       8.26937295
Ag       8.26425137       0.11400030      12.31306777
Ag       8.26937334       0.12488413      16.35676301
Ag       8.27123306       0.15540738      20.39956004
Ag       8.26518923       0.22948818      24.39664862
Ag       8.27123362       4.22657815       0.15540768
Ag       8.27123304       4.22657655      24.47073061
Ag       8.26937412       8.26937380       0.12488468
Ag       8.26937321       8.26937363      24.50125480
Ag       8.26425206      12.31306850       0.11400092
Ag       8.26425122      12.31306912      24.51213872
Ag       8.26937406      16.35676324       0.12488462
Ag       8.26937347      16.35676463      24.50125454
Ag       8.27123345      20.39955968       0.15540768
Ag       8.27123318      20.39956077      24.47073098
Ag       8.26518984      24.39664769       0.22948853
Ag       8.27123339      24.47073012       4.22657649
Ag       8.26937379      24.50125441       8.26937321
Ag       8.26425171      24.51213830      12.31306840
Ag       8.26937371      24.50125416      16.35676397
Ag       8.27123327      24.47073088      20.39956031
Ag       8.26518987      24.39664910      24.39664885
Ag      12.31306835       0.22902885       0.22902793
Ag      12.31306863       0.15000736       4.21929074
Ag      12.31306841       0.11400052       8.26425077
Ag      12.31306826       0.10230884      12.31306765
Ag      12.31306830       0.11399998      16.36188505
Ag      12.31306843       0.15000629      20.40684669
Ag      12.31306825       0.22902615      24.39711061
Ag      12.31306872       4.21929174       0.15000727
Ag      12.31306859       4.21928977      24.47613173
Ag      12.31306865       8.26425180       0.11400098
Ag      12.31306868       8.26425159      24.51213891
Ag      12.31306866      12.31306861       0.10230964
Ag      12.31306898      12.31306932      24.52383026
Ag      12.31306875      16.36188540       0.11400068
Ag      12.31306910      16.36188692      24.51213827
Ag      12.31306874      20.40684605       0.15000685
Ag      12.31306910      20.40684729      24.47613175
Ag      12.31306893      24.39710934       0.22902686
Ag      12.31306890      24.47613105       4.21929004
Ag      12.31306913      24.51213838       8.26425111
Ag      12.31306936      24.52382970      12.31306836
Ag      12.31306932      24.51213798      16.36188602
Ag      12.31306917      24.47613171      20.40684665
Ag      12.31306941      24.39711063      24.39711027
Ag      16.36094735       0.22949047       0.22948962
Ag      16.35490394       0.15540833       4.22657709
Ag      16.35676343       0.12488456       8.26937285
Ag      16.36188559       0.11400028      12.31306765
Ag      16.35676371       0.12488372      16.35676299
Ag      16.35490412       0.15540692      20.39956048
Ag      16.36094772       0.22948767      24.39664924
Ag      16.35490391       4.22657805       0.15540824
Ag      16.35490433       4.22657618      24.47073102
Ag      16.35676333       8.26937390       0.12488501
Ag      16.35676420       8.26937388      24.50125506
Ag      16.36188543      12.31306861       0.11400101
Ag      16.36188651      12.31306954      24.51213850
Ag      16.35676351      16.35676326       0.12488452
Ag      16.35676443      16.35676487      24.50125406
Ag      16.35490402      20.39955956       0.15540745
Ag      16.35490473      20.39956063      24.47073054
Ag      16.36094787      24.39664787       0.22948851
Ag      16.35490430      24.47073034       4.22657670
Ag      16.35676421      24.50125442       8.26937340
Ag      16.36188661      24.51213806      12.31306859
Ag      16.35676454      24.50125376      16.35676403
Ag      16.35490477      24.47073048      20.39956007
Ag      16.36094848      24.39664863      24.39664831
Ag      20.39213993       0.24066786       0.24066709
Ag      20.38574255       0.17619961       4.24039469
Ag      20.39956025       0.15540808       8.27123266
Ag      20.40684703       0.15000695      12.31306785
Ag      20.39956095       0.15540728      16.35490351
Ag      20.38574336       0.17619832      20.38574289
Ag      20.39214086       0.24066545      24.38547153
Ag      20.38574235       4.24039554       0.17619941
Ag      20.38574343       4.24039388      24.44993941
Ag      20.39955967       8.27123361       0.15540833
Ag      20.39956127       8.27123334      24.47073133
Ag      20.40684606      12.31306866       0.15000752
Ag      20.40684758      12.31306931      24.47613187
Ag      20.39955980      16.35490362       0.15540782
Ag      20.39956067      16.35490496      24.47073058
Ag      20.38574242      20.38574182       0.17619859
Ag      20.38574276      20.38574274      24.44993925
Ag      20.39214013      24.38547030       0.24066602
Ag      20.38574271      24.44993880       4.24039443
Ag      20.39956050      24.47073070       8.27123297
Ag      20.40684706      24.47613136      12.31306849
Ag      20.39956048      24.47073024      16.35490429
Ag      20.38574279      24.44993911      20.38574241
Ag      20.39214023      24.38547097      24.38547085
Ag      24.36905984       0.25707861       0.25707779
Ag      24.38547068       0.24066732       4.23399700
Ag      24.39664838       0.22948930       8.26518891
Ag      24.39711056       0.22902717      12.31306777
Ag      24.39664929       0.22948847      16.36094716
Ag      24.38547171       0.24066586      20.39214046
Ag      24.36906094       0.25707638      24.36906070
Ag      24.38547042       4.23399803       0.24066702
Ag      24.44993844       4.24039529       4.24039483
Ag      24.47072989       4.22657721       8.27123281
Ag      24.47613108       4.21929050      12.31306798
Ag      24.47073067       4.22657676      16.35490374
Ag      24.44993933       4.24039420      20.38574308
Ag      24.38547180       4.23399655      24.38547174
Ag      24.39664775       8.26519018       0.22948951
Ag      24.47072969       8.27123361       4.22657717
Ag      24.50125359       8.26937389       8.26937309
Ag      24.51213789       8.26425200      12.31306792
Ag      24.50125439       8.26937420      16.35676343
Ag      24.47073107       8.27123353      20.39956089
Ag      24.39664954       8.26518992      24.39664962
Ag      24.39710952      12.31306892       0.22902782
Ag      24.47613058      12.31306885       4.21929086
Ag      24.51213756      12.31306907       8.26425125
Ag      24.52382896      12.31306951      12.31306821
Ag      24.51213786      12.31306968      16.36188572
Ag      24.47613164      12.31306936      20.40684716
Ag      24.39711083      12.31306951      24.39711087
Ag      24.39664821      16.36094733       0.22948921
Ag      24.47073011      16.35490394       4.22657736
Ag      24.50125387      16.35676401       8.26937357
Ag      24.51213765      16.36188659      12.31306853
Ag      24.50125363      16.35676464      16.35676389
Ag      24.47073044      16.35490483      20.39956042
Ag      24.39664861      16.36094866      24.39664863
Ag      24.38547101      20.39213917       0.24066637
Ag      24.44993903      20.38574207       4.24039481
Ag      24.47073062      20.39956014       8.27123310
Ag      24.47613135      20.40684681      12.31306849
Ag      24.47073035      20.39956031      16.35490427
Ag      24.44993918      20.38574262      20.38574256
Ag      24.38547094      20.39214032      24.38547100
Ag      24.36906013      24.36905895       0.25707713
Ag      24.38547125      24.38547059       4.23399711
Ag      24.39664879      24.39664847       8.26518938
Ag      24.39711023      24.39710992      12.31306836
Ag      24.39664830      24.39664801      16.36094777
Ag      24.38547084      24.38547065      20.39214002
Ag      24.36905981      24.36905980      24.36905997
Ag       0.19407163       2.22932866       2.22932807
Ag       0.17627096       2.21344815       6.25216279
Ag       0.16833454       2.20311150      10.28950806
Ag       0.16833464       2.20311131      14.33662822
Ag       0.17627119       2.21344745      18.37397420
Ag       0.19407166       2.22932714      22.39680993
Ag       0.17627121       6.25216342       2.21344804
Ag       0.14832595       6.25282037       6.25282011
Ag       0.13160091       6.24253089      10.29190356
Ag       0.13160090       6.24253088      14.33423260
Ag       0.14832588       6.25282025      18.37331710
Ag       0.17627057       6.25216245      22.41269033
Ag       0.16833502      10.28950862       2.20311164
Ag       0.13160119      10.29190401       6.24253076
Ag       0.10788097      10.28974665      10.28974623
Ag       0.10788074      10.28974677      14.33638971
Ag       0.13160065      10.29190418      18.38360656
Ag       0.16833359      10.28950821      22.42302688
Ag       0.16833513      14.33662850       2.20311144
Ag       0.13160130      14.33423296       6.24253079
Ag       0.10788098      14.33639016      10.28974637
Ag       0.10788070      14.33639035      14.33638989
Ag       0.13160059      14.33423336      18.38360676
Ag       0.16833336      14.33662870      22.42302689
Ag       0.17627155      18.37397397       2.21344754
Ag       0.14832625      18.37331712       6.25282007
Ag       0.13160096      18.38360665      10.29190378
Ag       0.13160078      18.38360688      14.33423295
Ag       0.14832572      18.37331764      18.37331754
Ag       0.17626990      18.37397502      22.41269031
Ag       0.19407175      22.39680925       2.22932732
Ag       0.17627088      22.41268992       6.25216234
Ag       0.16833395      22.42302654      10.28950782
Ag       0.16833371      22.42302655      14.33662825
Ag       0.17627010      22.41269010      18.37397472
Ag       0.19407014      22.39681040      22.39681031
Ag      24.43206568       2.22932796       2.22932740
Ag      24.44986618       2.21344744       6.25216242
Ag      24.45780286       2.20311058      10.28950790
Ag      24.45780325       2.20311018      14.33662822
Ag      24.44986697       2.21344631      18.37397456
Ag      24.43206639       2.22932630      22.39681093
Ag      24.44986600       6.25216325       2.21344746
Ag      24.47781086       6.25282035       6.25281983
Ag      24.49453626       6.24253102      10.29190345
Ag      24.49453672       6.24253102      14.33423251
Ag      24.47781211       6.25282025      18.37331726
Ag      24.44986722       6.25216256      22.41269135
Ag      24.45780242      10.28950888       2.20311123
Ag      24.49453599      10.29190442       6.24253067
Ag      24.51825635      10.28974751      10.28974640
Ag      24.51825665      10.28974779      14.33638988
Ag      24.49453694      10.29190495      18.38360665
Ag      24.45780371      10.28950894      22.42302767
Ag      24.45780259      14.33662883       2.20311136
Ag      24.49453619      14.33423331       6.24253088
Ag      24.51825631      14.33639104      10.28974670
Ag      24.51825632      14.33639136      14.33639018
Ag      24.49453646      14.33423412      18.38360672
Ag      24.45780337      14.33662952      22.42302714
Ag      24.44986655      18.37397410       2.21344754
Ag      24.47781157      18.37331706       6.25282022
Ag      24.49453655      18.38360683      10.29190407
Ag      24.49453634      18.38360711      14.33423324
Ag      24.47781130      18.37331778      18.37331748
Ag      24.44986663      18.37397515      22.41269025
Ag      24.43206625      22.39680908       2.22932742
Ag      24.44986695      22.41268968       6.25216257
Ag      24.45780335      22.42302622      10.28950817
Ag      24.45780322      22.42302622      14.33662871
Ag      24.44986661      22.41268979      18.37397478
Ag      24.43206618      22.39680996      22.39681012
Ag       2.22932804       0.19407224       2.22932792
Ag       2.21344801       0.17627125       6.25216270
Ag       2.20311148       0.16833485      10.28950801
Ag       2.20311121       0.16833493      14.33662815
Ag       2.21344735       0.17627134      18.37397407
Ag       2.22932736       0.19407158      22.39680986
Ag       2.22932735      24.43206513       2.22932706
Ag       2.21344714      24.44986644       6.25216223
Ag       2.20311067      24.45780342      10.28950783
Ag       2.20311073      24.45780363      14.33662829
Ag       2.21344723      24.44986723      18.37397468
Ag       2.22932709      24.43206728      22.39681022
Ag       6.25216307       0.17627162       2.21344769
Ag       6.25282058       0.14832643       6.25281991
Ag       6.24253113       0.13160154      10.29190351
Ag       6.24253087       0.13160162      14.33423245
Ag       6.25282005       0.14832646      18.37331675
Ag       6.25216261       0.17627091      22.41269022
Ag       6.25216280      24.44986588       2.21344670
Ag       6.25282012      24.47781156       6.25281970
Ag       6.24253079      24.49453686      10.29190384
Ag       6.24253070      24.49453679      14.33423311
Ag       6.25281994      24.47781164      18.37331754
Ag       6.25216257      24.44986746      22.41269002
Ag      10.28950853       0.16833551       2.20311122
Ag      10.29190424       0.13160187       6.24253044
Ag      10.28974672       0.10788163      10.28974604
Ag      10.28974659       0.10788144      14.33638944
Ag      10.29190382       0.13160135      18.38360598
Ag      10.28950826       0.16833420      22.42302689
Ag      10.28950870      24.45780249       2.20311022
Ag      10.29190443      24.49453679       6.24253030
Ag      10.28974740      24.51825711      10.28974655
Ag      10.28974748      24.51825698      14.33639024
Ag      10.29190448      24.49453671      18.38360683
Ag      10.28950895      24.45780393      22.42302634
Ag      14.33662860       0.16833569       2.20311108
Ag      14.33423295       0.13160213       6.24253039
Ag      14.33638997       0.10788171      10.28974603
Ag      14.33639008       0.10788132      14.33638943
Ag      14.33423298       0.13160106      18.38360604
Ag      14.33662867       0.16833396      22.42302726
Ag      14.33662902      24.45780259       2.20311042
Ag      14.33423352      24.49453684       6.24253044
Ag      14.33639103      24.51825700      10.28974669
Ag      14.33639121      24.51825674      14.33639036
Ag      14.33423385      24.49453646      18.38360676
Ag      14.33662954      24.45780359      22.42302617
Ag      18.37397449       0.17627213       2.21344735
Ag      18.37331712       0.14832720       6.25281965
Ag      18.38360637       0.13160189      10.29190330
Ag      18.38360665       0.13160142      14.33423227
Ag      18.37331752       0.14832586      18.37331689
Ag      18.37397494       0.17627036      22.41269103
Ag      18.37397472      24.44986625       2.21344694
Ag      18.37331749      24.47781181       6.25281987
Ag      18.38360703      24.49453685      10.29190403
Ag      18.38360719      24.49453648      14.33423331
Ag      18.37331776      24.47781126      18.37331746
Ag      18.37397522      24.44986677      22.41268976
Ag      22.39681015       0.19407252       2.22932728
Ag      22.41269026       0.17627172       6.25216231
Ag      22.42302699       0.16833496      10.28950783
Ag      22.42302749       0.16833462      14.33662812
Ag      22.41269138       0.17627073      18.37397444
Ag      22.39681115       0.19407104      22.39681082
Ag      22.39680998      24.43206554       2.22932719
Ag      22.41269018      24.44986667       6.25216243
Ag      22.42302655      24.45780320      10.28950816
Ag      22.42302652      24.45780298      14.33662873
Ag      22.41269006      24.44986639      18.37397475
Ag      22.39681015      24.43206609      22.39680999
Ag       2.22932808       2.22932874       0.19407173
Ag       2.22932730       2.22932696      24.43206583
Ag       2.21344823       6.25216352       0.17627134
Ag       2.21344688       6.25216240      24.44986701
Ag       2.20311191      10.28950866       0.16833526
Ag       2.20311033      10.28950826      24.45780394
Ag       2.20311168      14.33662845       0.16833534
Ag       2.20311042      14.33662882      24.45780416
Ag       2.21344767      18.37397385       0.17627163
Ag       2.21344706      18.37397511      24.44986759
Ag       2.22932743      22.39680917       0.19407178
Ag       2.22932706      22.39681044      24.43206728
Ag       6.25216312       2.21344850       0.17627115
Ag       6.25216258       2.21344654      24.44986648
Ag       6.25282082       6.25282071       0.14832664
Ag       6.25281977       6.25281997      24.47781203
Ag       6.24253165      10.29190424       0.13160212
Ag       6.24253029      10.29190437      24.49453733
Ag       6.24253157      14.33423287       0.13160219
Ag       6.24253039      14.33423374      24.49453726
Ag       6.25282050      18.37331668       0.14832683
Ag       6.25281980      18.37331800      24.47781196
Ag       6.25216285      22.41268952       0.17627108
Ag       6.25216253      22.41269029      24.44986743
Ag      10.28950857       2.20311213       0.16833503
Ag      10.28950830       2.20310970      24.45780313
Ag      10.29190444       6.24253141       0.13160212
Ag      10.29190395       6.24253049      24.49453728
Ag      10.28974717      10.28974698       0.10788223
Ag      10.28974688      10.28974725      24.51825762
Ag      10.28974723      14.33639008       0.10788216
Ag      10.28974714      14.33639113      24.51825738
Ag      10.29190435      18.38360590       0.13160185
Ag      10.29190433      18.38360753      24.49453695
Ag      10.28950867      22.42302587       0.16833449
Ag      10.28950892      22.42302675      24.45780380
Ag      14.33662863       2.20311201       0.16833524
Ag      14.33662874       2.20310937      24.45780341
Ag      14.33423301       6.24253145       0.13160237
Ag      14.33423330       6.24253055      24.49453748
Ag      14.33639012      10.28974708       0.10788234
Ag      14.33639074      10.28974750      24.51825759
Ag      14.33639027      14.33639019       0.10788217
Ag      14.33639097      14.33639136      24.51825710
Ag      14.33423313      18.38360589       0.13160176
Ag      14.33423372      18.38360757      24.49453665
Ag      14.33662895      22.42302575       0.16833447
Ag      14.33662951      22.42302664      24.45780346
Ag      18.37397446       2.21344817       0.17627168
Ag      18.37397500       2.21344579      24.44986697
Ag      18.37331689       6.25282061       0.14832736
Ag      18.37331783       6.25281988      24.47781250
Ag      18.38360593      10.29190427       0.13160243
Ag      18.38360729      10.29190476      24.49453742
Ag      18.38360604      14.33423287       0.13160216
Ag      18.38360728      14.33423414      24.49453685
Ag      18.37331695      18.37331654       0.14832649
Ag      18.37331776      18.37331805      24.47781150
Ag      18.37397459      22.41268935       0.17627067
Ag      18.37397519      22.41269005      24.44986672
Ag      22.39681004       2.22932806       0.19407201
Ag      22.39681115       2.22932613      24.43206628
Ag      22.41268973       6.25216326       0.17627164
Ag      22.41269151       6.25216243      24.44986729
Ag      22.42302586      10.28950883       0.16833526
Ag      22.42302782      10.28950890      24.45780382
Ag      22.42302586      14.33662871       0.16833510
Ag      22.42302728      14.33662956      24.45780340
Ag      22.41268978      18.37397396       0.17627099
Ag      22.41269033      18.37397522      24.44986666
Ag      22.39680984      22.39680898       0.19407113
Ag      22.39681012      22.39680999      24.43206625
Ag       4.25067057       2.21807995       2.21807944
Ag       4.24288073       2.19328416       6.26569131
Ag       4.23081583       2.17922073      10.29298639
Ag       4.23081561       2.17922050      14.33315041
Ag       4.24288033       2.19328351      18.36044575
Ag       4.25067012       2.21807861      22.40805855
Ag       4.24288083       6.26569199       2.19328418
Ag       4.24287998       6.26569114      22.43285437
Ag       4.23081605      10.29298698       2.17922110
Ag       4.23081493      10.29298655      22.44691770
Ag       4.23081588      14.33315072       2.17922091
Ag       4.23081484      14.33315086      22.44691759
Ag       4.24288040      18.36044574       2.19328379
Ag       4.24287970      18.36044643      22.43285399
Ag       4.25067009      22.40805789       2.21807885
Ag       4.24288002      22.43285392       6.26569084
Ag       4.23081511      22.44691729      10.29298610
Ag       4.23081498      22.44691722      14.33315040
Ag       4.24287977      22.43285380      18.36044607
Ag       4.25066964      22.40805861      22.40805853
Ag       8.27271440       2.20111313       2.20111267
Ag       8.27818009       2.16734633       6.25856617
Ag       8.27297951       2.14460199      10.29440372
Ag       8.27297935       2.14460167      14.33173281
Ag       8.27817964       2.16734540      18.36757086
Ag       8.27271407       2.20111148      22.42502562
Ag       8.27818020       6.25856680       2.16734652
Ag       8.27817953       6.25856600      22.45879251
Ag       8.27297976      10.29440431       2.14460252
Ag       8.27297909      10.29440425      22.48153655
Ag       8.27297972      14.33173323       2.14460236
Ag       8.27297920      14.33173362      22.48153624
Ag       8.27817988      18.36757088       2.16734599
Ag       8.27817947      18.36757183      22.45879188
Ag       8.27271418      22.42502483       2.20111194
Ag       8.27817972      22.45879193       6.25856577
Ag       8.27297932      22.48153601      10.29440375
Ag       8.27297930      22.48153585      14.33173312
Ag       8.27817952      22.45879169      18.36757142
Ag       8.27271410      22.42502547      22.42502534
Ag      12.31306877       2.19708898       2.19708851
Ag      12.31306886       2.15755964       6.25191247
Ag      12.31306863       2.13210109      10.29221087
Ag      12.31306858       2.13210061      14.33392558
Ag      12.31306862       2.15755839      18.37422454
Ag      12.31306863       2.19708710      22.42904993
Ag      12.31306890       6.25191314       2.15755987
Ag      12.31306874       6.25191221      22.46857933
Ag      12.31306874      10.29221160       2.13210190
Ag      12.31306885      10.29221142      22.49403746
Ag      12.31306877      14.33392608       2.13210176
Ag      12.31306902      14.33392675      22.49403708
Ag      12.31306872      18.37422451       2.15755947
Ag      12.31306897      18.37422562      22.46857841
Ag      12.31306876      22.42904874       2.19708802
Ag      12.31306886      22.46857829       6.25191217
Ag      12.31306905      22.49403661      10.29221079
Ag      12.31306916      22.49403658      14.33392614
Ag      12.31306902      22.46857821      18.37422503
Ag      12.31306913      22.42904949      22.42904929
Ag      16.35342318       2.20111288       2.20111247
Ag      16.34795764       2.16734610       6.25856616
Ag      16.35315787       2.14460160      10.29440366
Ag      16.35315805       2.14460117      14.33173267
Ag      16.34795785       2.16734479      18.36757094
Ag      16.35342343       2.20111100      22.42502611
Ag      16.34795755       6.25856678       2.16734644
Ag      16.34795805       6.25856594      22.45879295
Ag      16.35315764      10.29440437       2.14460258
Ag      16.35315871      10.29440441      22.48153688
Ag      16.35315772      14.33173309       2.14460260
Ag      16.35315884      14.33173391      22.48153631
Ag      16.34795755      18.36757072       2.16734622
Ag      16.34795834      18.36757187      22.45879181
Ag      16.35342330      22.42502456       2.20111224
Ag      16.34795787      22.45879156       6.25856598
Ag      16.35315859      22.48153565      10.29440390
Ag      16.35315882      22.48153552      14.33173329
Ag      16.34795837      22.45879150      18.36757143
Ag      16.35342396      22.42502528      22.42502518
Ag      20.37546734       2.21807947       2.21807909
Ag      20.38325732       2.19328378       6.26569123
Ag      20.39532235       2.17922015      10.29298625
Ag      20.39532278       2.17921974      14.33315023
Ag      20.38325817       2.19328266      18.36044592
Ag      20.37546822       2.21807796      22.40805917
Ag      20.38325703       6.26569177       2.19328408
Ag      20.38325840       6.26569090      22.43285507
Ag      20.39532166      10.29298682       2.17922106
Ag      20.39532325      10.29298674      22.44691825
Ag      20.39532173      14.33315057       2.17922111
Ag      20.39532304      14.33315109      22.44691781
Ag      20.38325710      18.36044554       2.19328407
Ag      20.38325788      18.36044646      22.43285415
Ag      20.37546737      22.40805760       2.21807905
Ag      20.38325747      22.43285349       6.26569102
Ag      20.39532243      22.44691689      10.29298626
Ag      20.39532260      22.44691691      14.33315066
Ag      20.38325775      22.43285368      18.36044620
Ag      20.37546783      22.40805838      22.40805847
Ag       2.21807977       4.25067090       2.21807958
Ag       2.19328423       4.24288058       6.26569137
Ag       2.17922090       4.23081565      10.29298637
Ag       2.17922054       4.23081547      14.33315045
Ag       2.19328361       4.24288017      18.36044586
Ag       2.21807890       4.25066976      22.40805863
Ag       2.20111322       8.27271448       2.20111299
Ag       2.16734655       8.27817977       6.25856621
Ag       2.14460223       8.27297914      10.29440365
Ag       2.14460185       8.27297925      14.33173289
Ag       2.16734547       8.27817962      18.36757118
Ag       2.20111173       8.27271380      22.42502577
Ag       2.19708909      12.31306875       2.19708891
Ag       2.15755985      12.31306872       6.25191246
Ag       2.13210139      12.31306868      10.29221069
Ag       2.13210092      12.31306876      14.33392594
Ag       2.15755895      12.31306878      18.37422492
Ag       2.19708757      12.31306849      22.42904987
Ag       2.20111284      16.35342301       2.20111266
Ag       2.16734609      16.34795781       6.25856613