1099
Properties=species:S:1:pos:R:3 Geometry=T Step:=T 54=T pbc="F F F"
Ag       0.28518805       0.28518883       0.28518822
Ag       0.26997819       0.26997895       4.26070298
Ag       0.25954884       0.25954971       8.28037013
Ag       0.25537067       0.25537160      12.31306931
Ag       0.25955013       0.25955093      16.34576841
Ag       0.26997993       0.26998057      20.36543489
Ag       0.28518959       0.28519011      24.34094844
Ag       0.26997870       4.26070395       0.26997875
Ag       0.20713796       4.26889073       4.26889011
Ag       0.18492083       4.25629163       8.28727820
Ag       0.17946614       4.24896069      12.31306940
Ag       0.18492242       4.25629174      16.33886034
Ag       0.20714011       4.26889093      20.35724767
Ag       0.26998067       4.26070418      24.35615741
Ag       0.25954990       8.28037136       0.25954986
Ag       0.18492126       8.28727904       4.25629128
Ag       0.14502075       8.28501313       8.28501250
Ag       0.13129663       8.27939773      12.31306935
Ag       0.14502221       8.28501262      16.34112592
Ag       0.18492318       8.28727844      20.36984640
Ag       0.25955158       8.28037081      24.36658650
Ag       0.25537204      12.31307029       0.25537198
Ag       0.17946677      12.31307019       4.24896053
Ag       0.13129666      12.31307006       8.27939716
Ag       0.11475531      12.31306971      12.31306892
Ag       0.13129705      12.31306917      16.34674058
Ag       0.17946719      12.31306908      20.37717709
Ag       0.25537236      12.31306944      24.37076566
Ag       0.25955152      16.34576844       0.25955144
Ag       0.18492318      16.33886061       4.25629170
Ag       0.14502218      16.34112625       8.28501215
Ag       0.13129693      16.34674109      12.31306846
Ag       0.14502111      16.34112535      16.34112485
Ag       0.18492158      16.33885946      20.36984589
Ag       0.25955020      16.34576755      24.36658781
Ag       0.26998168      20.36543437       0.26998147
Ag       0.20714136      20.35724728       4.26889102
Ag       0.18492367      20.36984626       8.28727797
Ag       0.17946743      20.37717715      12.31306830
Ag       0.18492175      20.36984606      16.33885883
Ag       0.20713861      20.35724697      20.35724665
Ag       0.26997939      20.36543398      24.35615869
Ag       0.28519136      24.34094709       0.28519094
Ag       0.26998222      24.35615628       4.26070429
Ag       0.25955257      24.36658602       8.28037051
Ag       0.25537323      24.37076543      12.31306846
Ag       0.25955085      24.36658768      16.34576659
Ag       0.26997971      24.35615865      20.36543342
Ag       0.28518961      24.34094863      24.34094855
Ag       4.26070289       0.26997918       0.26997857
Ag       4.26888996       0.20713840       4.26888985
Ag       4.25629078       0.18492120       8.28727801
Ag       4.24895976       0.17946642      12.31306931
Ag       4.25629095       0.18492259      16.33886042
Ag       4.26889017       0.20714024      20.35724781
Ag       4.26070322       0.26998086      24.35615765
Ag       4.26889029       4.26889070       0.20713840
Ag       4.26889055       4.26889100      24.41899736
Ag       4.25629157       8.28727906       0.18492172
Ag       4.25629194       8.28727848      24.44121416
Ag       4.24896084      12.31307015       0.17946727
Ag       4.24896121      12.31306911      24.44667004
Ag       4.25629201      16.33886048       0.18492363
Ag       4.25629240      16.33885941      24.44121563
Ag       4.26889140      20.35724710       0.20714166
Ag       4.26889165      20.35724684      24.41899875
Ag       4.26070467      24.35615594       0.26998227
Ag       4.26889160      24.41899590       4.26889134
Ag       4.25629275      24.44121342       8.28727817
Ag       4.24896200      24.44666965      12.31306826
Ag       4.25629294      24.44121541      16.33885861
Ag       4.26889181      24.41899871      20.35724636
Ag       4.26070479      24.35615824      24.35615794
Ag       8.28037007       0.25955021       0.25954951
Ag       8.28727801       0.18492169       4.25629055
Ag       8.28501202       0.14502101       8.28501200
Ag       8.27939665       0.13129667      12.31306915
Ag       8.28501179       0.14502210      16.34112623
Ag       8.28727759       0.18492304      20.36984699
Ag       8.28036963       0.25955158      24.36658697
Ag       8.28727828       4.25629156       0.18492184
Ag       8.28727779       4.25629189      24.44121436
Ag       8.28501263       8.28501321       0.14502191
Ag       8.28501232       8.28501272      24.48111420
Ag       8.27939739      12.31307002       0.13129794
Ag       8.27939756      12.31306927      24.49483911
Ag       8.28501239      16.34112603       0.14502338
Ag       8.28501323      16.34112528      24.48111503
Ag       8.28727824      20.36984598       0.18492464
Ag       8.28727925      20.36984582      24.44121469
Ag       8.28037077      24.36658531       0.25955311
Ag       8.28727834      24.44121287       4.25629264
Ag       8.28501275      24.48111340       8.28501269
Ag       8.27939811      24.49483851      12.31306840
Ag       8.28501367      24.48111461      16.34112429
Ag       8.28727942      24.44121465      20.36984507
Ag       8.28037139      24.36658679      24.36658623
Ag      12.31306914       0.25537205       0.25537126
Ag      12.31306905       0.17946697       4.24895942
Ag      12.31306885       0.13129670       8.27939653
Ag      12.31306867       0.11475526      12.31306885
Ag      12.31306851       0.13129713      16.34674131
Ag      12.31306850       0.17946735      20.37717811
Ag      12.31306850       0.25537267      24.37076595
Ag      12.31306913       4.24896058       0.17946723
Ag      12.31306847       4.24896089      24.44667004
Ag      12.31306904       8.27939788       0.13129791
Ag      12.31306849       8.27939783      24.49483907
Ag      12.31306880      12.31306975       0.11475678
Ag      12.31306875      12.31306979      24.51138019
Ag      12.31306840      16.34674094       0.13129839
Ag      12.31306913      16.34674093      24.49483871
Ag      12.31306827      20.37717687       0.17946866
Ag      12.31306929      20.37717684      24.44666867
Ag      12.31306850      24.37076455       0.25537397
Ag      12.31306825      24.44666886       4.24896191
Ag      12.31306836      24.49483832       8.27939800
Ag      12.31306887      24.51137937      12.31306889
Ag      12.31306930      24.49483802      16.34673978
Ag      12.31306937      24.44666855      20.37717591
Ag      12.31306921      24.37076436      24.37076367
Ag      16.34576799       0.25955089       0.25955012
Ag      16.33885992       0.18492252       4.25629050
Ag      16.34112565       0.14502149       8.28501172
Ag      16.34674079       0.13129661      12.31306881
Ag      16.34112546       0.14502158      16.34112608
Ag      16.33885961       0.18492240      20.36984708
Ag      16.34576759       0.25955111      24.36658748
Ag      16.33885976       4.25629155       0.18492281
Ag      16.33885943       4.25629184      24.44121509
Ag      16.34112521       8.28501283       0.14502266
Ag      16.34112499       8.28501302      24.48111489
Ag      16.34674007      12.31306938       0.13129786
Ag      16.34674016      12.31306991      24.49483916
Ag      16.34112449      16.34112544       0.14502204
Ag      16.34112507      16.34112596      24.48111405
Ag      16.33885849      20.36984596       0.18492265
Ag      16.33885921      20.36984598      24.44121308
Ag      16.34576628      24.36658700       0.25955145
Ag      16.33885834      24.44121491       4.25629271
Ag      16.34112408      24.48111485       8.28501345
Ag      16.34673952      24.49483850      12.31306934
Ag      16.34112469      24.48111330      16.34112507
Ag      16.33885909      24.44121287      20.36984519
Ag      16.34576696      24.36658538      24.36658475
Ag      20.36543480       0.26998023       0.26997955
Ag      20.35724773       0.20713973       4.26888973
Ag      20.36984693       0.18492199       8.28727756
Ag      20.37717798       0.17946643      12.31306876
Ag      20.36984679       0.18492190      16.33886015
Ag      20.35724748       0.20713933      20.35724789
Ag      20.36543441       0.26998018      24.35615829
Ag      20.35724745       4.26889069       0.20713991
Ag      20.35724715       4.26889085      24.41899834
Ag      20.36984613       8.28727861       0.18492290
Ag      20.36984590       8.28727880      24.44121506
Ag      20.37717684      12.31306929       0.17946726
Ag      20.37717671      12.31306992      24.44667003
Ag      20.36984566      16.33885963       0.18492186
Ag      20.36984555      16.33886034      24.44121420
Ag      20.35724627      20.35724705       0.20713895
Ag      20.35724621      20.35724717      24.41899643
Ag      20.36543294      24.35615830       0.26998000
Ag      20.35724594      24.41899873       4.26889143
Ag      20.36984474      24.44121541       8.28727912
Ag      20.37717555      24.44666964      12.31306939
Ag      20.36984473      24.44121359      16.33885950
Ag      20.35724593      24.41899626      20.35724647
Ag      20.36543300      24.35615634      24.35615584
Ag      24.34094879       0.28518967       0.28518904
Ag      24.35615844       0.26997992       4.26070282
Ag      24.36658815       0.25955025       8.28036959
Ag      24.37076691       0.25537151      12.31306867
Ag      24.36658798       0.25955032      16.34576812
Ag      24.35615832       0.26997981      20.36543500
Ag      24.34094851       0.28518953      24.34094888
Ag      24.35615783       4.26070399       0.26997988
Ag      24.41899820       4.26889064       4.26888997
Ag      24.44121590       4.25629139       8.28727770
Ag      24.44667149       4.24896040      12.31306874
Ag      24.44121600       4.25629147      16.33886002
Ag      24.41899854       4.26889070      20.35724776
Ag      24.35615770       4.26070395      24.35615811
Ag      24.36658698       8.28037100       0.25955067
Ag      24.44121528       8.28727859       4.25629118
Ag      24.48111633       8.28501277       8.28501213
Ag      24.49484121       8.27939774      12.31306880
Ag      24.48111631       8.28501293      16.34112575
Ag      24.44121544       8.28727876      20.36984664
Ag      24.36658672       8.28037103      24.36658711
Ag      24.37076587      12.31306964       0.25537182
Ag      24.44667094      12.31306938       4.24896046
Ag      24.49484120      12.31306957       8.27939719
Ag      24.51138258      12.31306991      12.31306887
Ag      24.49484077      12.31306995      16.34674081
Ag      24.44667050      12.31306995      20.37717739
Ag      24.37076519      12.31307015      24.37076546
Ag      24.36658773      16.34576780       0.25954998
Ag      24.44121624      16.33885981       4.25629171
Ag      24.48111682      16.34112578       8.28501282
Ag      24.49484085      16.34674127      12.31306919
Ag      24.48111557      16.34112616      16.34112561
Ag      24.44121462      16.33886044      20.36984615
Ag      24.36658622      16.34576846      24.36658644
Ag      24.35615827      20.36543426       0.26997935
Ag      24.41899896      20.35724722       4.26889109
Ag      24.44121583      20.36984628       8.28727888
Ag      24.44667019      20.37717724      12.31306931
Ag      24.44121416      20.36984626      16.33885966
Ag      24.41899668      20.35724729      20.35724677
Ag      24.35615640      20.36543437      24.35615665
Ag      24.34094790      24.34094867       0.28518960
Ag      24.35615767      24.35615857       4.26070457
Ag      24.36658656      24.36658762       8.28037127
Ag      24.37076426      24.37076542      12.31306918
Ag      24.36658514      24.36658619      16.34576713
Ag      24.35615581      24.35615667      20.36543332
Ag      24.34094664      24.34094735      24.34094687
Ag       0.22427371       2.25815240       2.25815178
Ag       0.20768724       2.24494945       6.27437065
Ag       0.19889045       2.23449721      10.29834917
Ag       0.19889118       2.23449752      14.32778940
Ag       0.20768899       2.24495021      18.35176757
Ag       0.22427540       2.25815316      22.36798545
Ag       0.20768776       6.27437158       2.24494917
Ag       0.17560061       6.27668452       6.27668391
Ag       0.15624935       6.26547183      10.29971158
Ag       0.15625026       6.26547170      14.32642722
Ag       0.17560272       6.27668422      18.34945430
Ag       0.20768980       6.27437141      22.38118788
Ag       0.19889135      10.29835017       2.23449723
Ag       0.15624959      10.29971234       6.26547136
Ag       0.12264016      10.29722754      10.29722682
Ag       0.12264072      10.29722716      14.32891145
Ag       0.15625083      10.29971140      18.36066649
Ag       0.19889255      10.29834949      22.39164016
Ag       0.19889222      14.32778994       2.23449777
Ag       0.15625051      14.32642775       6.26547135
Ag       0.12264063      14.32891209      10.29722647
Ag       0.12264047      14.32891158      14.32891090
Ag       0.15624998      14.32642653      18.36066602
Ag       0.19889177      14.32778901      22.39164024
Ag       0.20769022      18.35176738       2.24495060
Ag       0.17560328      18.34945434       6.27668395
Ag       0.15625085      18.36066674      10.29971077
Ag       0.15624998      18.36066638      14.32642587
Ag       0.17560099      18.34945345      18.34945306
Ag       0.20768818      18.35176660      22.38118800
Ag       0.22427686      22.36798447       2.25815374
Ag       0.20769079      22.38118725       6.27437130
Ag       0.19889314      22.39163982      10.29834882
Ag       0.19889224      22.39164013      14.32778814
Ag       0.20768847      22.38118805      18.35176598
Ag       0.22427480      22.36798505      22.36798483
Ag      24.40186253       2.25815261       2.25815189
Ag      24.41844918       2.24494937       6.27437034
Ag      24.42724661       2.23449690      10.29834851
Ag      24.42724669       2.23449698      14.32778886
Ag      24.41844937       2.24494965      18.35176744
Ag      24.40186294       2.25815274      22.36798568
Ag      24.41844843       6.27437147       2.24494915
Ag      24.45053594       6.27668422       6.27668368
Ag      24.46988793       6.26547163      10.29971097
Ag      24.46988796       6.26547166      14.32642673
Ag      24.45053601       6.27668427      18.34945428
Ag      24.41844881       6.27437139      22.38118826
Ag      24.42724549      10.29834964       2.23449694
Ag      24.46988765      10.29971171       6.26547133
Ag      24.50349746      10.29722737      10.29722647
Ag      24.50349739      10.29722754      14.32891123
Ag      24.46988746      10.29971206      18.36066669
Ag      24.42724565      10.29834998      22.39164041
Ag      24.42724598      14.32778922       2.23449703
Ag      24.46988812      14.32642700       6.26547167
Ag      24.50349751      14.32891194      10.29722678
Ag      24.50349707      14.32891218      14.32891132
Ag      24.46988705      14.32642756      18.36066651
Ag      24.42724528      14.32778989      22.39164007
Ag      24.41844938      18.35176681       2.24494948
Ag      24.45053679      18.34945380       6.27668461
Ag      24.46988777      18.36066657      10.29971174
Ag      24.46988693      18.36066670      14.32642687
Ag      24.45053474      18.34945414      18.34945374
Ag      24.41844769      18.35176733      22.38118736
Ag      24.40186254      22.36798534       2.25815296
Ag      24.41844889      22.38118835       6.27437191
Ag      24.42724511      22.39164037      10.29834958
Ag      24.42724433      22.39164003      14.32778881
Ag      24.41844701      22.38118751      18.35176632
Ag      24.40186099      22.36798463      22.36798403
Ag       2.25815169       0.22427426       2.25815167
Ag       2.24494869       0.20768778       6.27437058
Ag       2.23449635       0.19889101      10.29834912
Ag       2.23449667       0.19889169      14.32778940
Ag       2.24494949       0.20768940      18.35176760
Ag       2.25815251       0.22427576      22.36798549
Ag       2.25815422      24.40186112       2.25815388
Ag       2.24495151      24.41844710       6.27437139
Ag       2.23449909      24.42724477      10.29834885
Ag       2.23449876      24.42724568      14.32778809
Ag       2.24495064      24.41844941      18.35176590
Ag       2.25815342      24.40186310      22.36798471
Ag       6.27437063       0.20768825       2.24494857
Ag       6.27668358       0.17560098       6.27668350
Ag       6.26547082       0.15624957      10.29971131
Ag       6.26547077       0.15625029      14.32642722
Ag       6.27668345       0.17560267      18.34945459
Ag       6.27437044       0.20768977      22.38118831
Ag       6.27437169      24.41844661       2.24495140
Ag       6.27668462      24.45053313       6.27668447
Ag       6.26547246      24.46988534      10.29971092
Ag       6.26547283      24.46988628      14.32642563
Ag       6.27668550      24.45053556      18.34945257
Ag       6.27437225      24.41844881      22.38118725
Ag      10.29834910       0.19889182       2.23449607
Ag      10.29971113       0.15624987       6.26547064
Ag      10.29722634       0.12264026      10.29722639
Ag      10.29722617       0.12264066      14.32891160
Ag      10.29971070       0.15625079      18.36066725
Ag      10.29834850       0.19889251      22.39164095
Ag      10.29834901      24.42724388       2.23449912
Ag      10.29971096      24.46988491       6.26547237
Ag      10.29722684      24.50349433      10.29722680
Ag      10.29722737      24.50349457      14.32891050
Ag      10.29971220      24.46988559      18.36066511
Ag      10.29834977      24.42724456      22.39163895
Ag      14.32778912       0.19889229       2.23449612
Ag      14.32642671       0.15625025       6.26547056
Ag      14.32891120       0.12264039      10.29722619
Ag      14.32891103       0.12264049      14.32891146
Ag      14.32642634       0.15625046      18.36066723
Ag      14.32778858       0.19889220      22.39164109
Ag      14.32778797      24.42724477       2.23449873
Ag      14.32642550      24.46988592       6.26547264
Ag      14.32891038      24.50349472      10.29722727
Ag      14.32891081      24.50349416      14.32891099
Ag      14.32642653      24.46988466      18.36066539
Ag      14.32778868      24.42724372      22.39163866
Ag      18.35176722       0.20768940       2.24494865
Ag      18.34945411       0.17560187       6.27668329
Ag      18.36066679       0.15624987      10.29971085
Ag      18.36066673       0.15624987      14.32642687
Ag      18.34945397       0.17560186      18.34945454
Ag      18.35176697       0.20768902      22.38118862
Ag      18.35176548      24.41844888       2.24495037
Ag      18.34945223      24.45053575       6.27668515
Ag      18.36066478      24.46988637      10.29971205
Ag      18.36066496      24.46988538      14.32642678
Ag      18.34945268      24.45053337      18.34945323
Ag      18.35176586      24.41844682      22.38118655
Ag      22.36798583       0.22427564       2.25815179
Ag      22.38118895       0.20768891       6.27437027
Ag      22.39164148       0.19889152      10.29834849
Ag      22.39164135       0.19889141      14.32778888
Ag      22.38118854       0.20768864      18.35176747
Ag      22.36798536       0.22427501      22.36798572
Ag      22.36798438      24.40186290       2.25815311
Ag      22.38118715      24.41844922       6.27437199
Ag      22.39163898      24.42724546      10.29834963
Ag      22.39163863      24.42724465      14.32778879
Ag      22.38118629      24.41844728      18.35176624
Ag      22.36798360      24.40186130      22.36798390
Ag       2.25815182       2.25815237       0.22427392
Ag       2.25815268       2.25815318      24.40186241
Ag       2.24494934       6.27437158       0.20768792
Ag       2.24495034       6.27437143      24.41844797
Ag       2.23449747      10.29835017       0.19889149
Ag       2.23449807      10.29834950      24.42724516
Ag       2.23449800      14.32778991       0.19889236
Ag       2.23449795      14.32778900      24.42724589
Ag       2.24495088      18.35176730       0.20769029
Ag       2.24495021      18.35176656      24.41844953
Ag       2.25815415      22.36798436       0.22427676
Ag       2.25815339      22.36798497      24.40186305
Ag       6.27437074       2.24494935       0.20768796
Ag       6.27437056       2.24495036      24.41844824
Ag       6.27668410       6.27668455       0.17560141
Ag       6.27668399       6.27668430      24.45053427
Ag       6.26547165      10.29971236       0.15625049
Ag       6.26547182      10.29971148      24.46988593
Ag       6.26547166      14.32642764       0.15625142
Ag       6.26547223      14.32642655      24.46988667
Ag       6.27668427      18.34945412       0.17560404
Ag       6.27668517      18.34945332      24.45053575
Ag       6.27437165      22.38118700       0.20769130
Ag       6.27437221      22.38118776      24.41844863
Ag      10.29834916       2.23449700       0.19889152
Ag      10.29834854       2.23449782      24.42724549
Ag      10.29971146       6.26547190       0.15625057
Ag      10.29971085       6.26547183      24.46988595
Ag      10.29722684      10.29722762       0.12264159
Ag      10.29722653      10.29722729      24.50349512
Ag      10.29722657      14.32891198       0.12264210
Ag      10.29722697      14.32891161      24.50349524
Ag      10.29971088      18.36066647       0.15625216
Ag      10.29971194      18.36066613      24.46988596
Ag      10.29834899      22.39163948       0.19889411
Ag      10.29834973      22.39163969      24.42724427
Ag      14.32778910       2.23449709       0.19889200
Ag      14.32778854       2.23449770      24.42724582
Ag      14.32642665       6.26547181       0.15625109
Ag      14.32642615       6.26547189      24.46988637
Ag      14.32891100      10.29722733       0.12264183
Ag      14.32891073      10.29722756      24.50349537
Ag      14.32891063      14.32891163       0.12264175
Ag      14.32891096      14.32891201      24.50349499
Ag      14.32642566      18.36066624       0.15625121
Ag      14.32642657      18.36066639      24.46988520
Ag      14.32778799      22.39163987       0.19889323
Ag      14.32778868      22.39163944      24.42724346
Ag      18.35176713       2.24494952       0.20768914
Ag      18.35176688       2.24495004      24.41844901
Ag      18.34945365       6.27668431       0.17560260
Ag      18.34945351       6.27668442      24.45053525
Ag      18.36066590      10.29971166       0.15625100
Ag      18.36066590      10.29971207      24.46988648
Ag      18.36066558      14.32642678       0.15625046
Ag      18.36066581      14.32642746      24.46988603
Ag      18.34945267      18.34945354       0.17560156
Ag      18.34945311      18.34945397      24.45053389
Ag      18.35176555      22.38118806       0.20768908
Ag      18.35176594      22.38118718      24.41844664
Ag      22.36798574       2.25815262       0.22427534
Ag      22.36798521       2.25815281      24.40186309
Ag      22.38118833       6.27437148       0.20768942
Ag      22.38118770       6.27437143      24.41844889
Ag      22.39164052      10.29834963       0.19889238
Ag      22.39163988      10.29834998      24.42724564
Ag      22.39164048      14.32778916       0.19889188
Ag      22.39163962      14.32778985      24.42724522
Ag      22.38118801      18.35176673       0.20768841
Ag      22.38118693      18.35176727      24.41844769
Ag      22.36798453      22.36798523       0.22427511
Ag      22.36798370      22.36798454      24.40186109
Ag       4.27990609       2.25035951       2.25035901
Ag       4.27787812       2.23007531       6.29287467
Ag       4.26661421       2.21596507      10.30264288
Ag       4.26661429       2.21596551      14.32349556
Ag       4.27787827       2.23007633      18.33326334
Ag       4.27990624       2.25036053      22.37577780
Ag       4.27787857       6.29287539       2.23007523
Ag       4.27787876       6.29287533      22.39606134
Ag       4.26661504      10.30264362       2.21596534
Ag       4.26661528      10.30264297      22.41017161
Ag       4.26661522      14.32349596       2.21596599
Ag       4.26661549      14.32349499      22.41017181
Ag       4.27787922      18.33326309       2.23007699
Ag       4.27787947      18.33326235      22.39606162
Ag       4.27990748      22.37577667       2.25036138
Ag       4.27787958      22.39606056       6.29287531
Ag       4.26661602      22.41017116      10.30264245
Ag       4.26661613      22.41017156      14.32349436
Ag       4.27787979      22.39606157      18.33326190
Ag       4.27990754      22.37577756      22.37577734
Ag       8.28954887       2.23602322       2.23602266
Ag       8.29911493       2.20355750       6.29027548
Ag       8.29481939       2.17428574      10.30554540
Ag       8.29481924       2.17428615      14.32059272
Ag       8.29911455       2.20355845      18.33586235
Ag       8.28954839       2.23602417      22.39011411
Ag       8.29911527       6.29027635       2.20355752
Ag       8.29911477       6.29027632      22.42257899
Ag       8.29481995      10.30554624       2.17428620
Ag       8.29481976      10.30554580      22.45185053
Ag       8.29481977      14.32059303       2.17428685
Ag       8.29482020      14.32059237      22.45185050
Ag       8.29911495      18.33586182       2.20355934
Ag       8.29911591      18.33586133      22.42257871
Ag       8.28954911      22.39011278       2.23602533
Ag       8.29911508      22.42257809       6.29027661
Ag       8.29482017      22.45184996      10.30554538
Ag       8.29482064      22.45185017      14.32059165
Ag       8.29911616      22.42257867      18.33586069
Ag       8.28954978      22.39011336      22.39011296
Ag      12.31306916       2.23072833       2.23072769
Ag      12.31306901       2.19238795       6.28368214
Ag      12.31306884       2.15580394      10.30289366
Ag      12.31306863       2.15580422      14.32324391
Ag      12.31306852       2.19238860      18.34245551
Ag      12.31306853       2.23072896      22.39540934
Ag      12.31306914       6.28368316       2.19238801
Ag      12.31306847       6.28368326      22.43374878
Ag      12.31306904      10.30289461       2.15580448
Ag      12.31306859      10.30289475      22.47033230
Ag      12.31306872      14.32324416       2.15580497
Ag      12.31306893      14.32324431      22.47033195
Ag      12.31306837      18.34245470       2.19238944
Ag      12.31306923      18.34245474      22.43374774
Ag      12.31306855      22.39540804       2.23073012
Ag      12.31306830      22.43374792       6.28368385
Ag      12.31306865      22.47033168      10.30289440
Ag      12.31306910      22.47033155      14.32324346
Ag      12.31306934      22.43374766      18.34245393
Ag      12.31306919      22.39540787      22.39540736
Ag      16.33658923       2.23602341       2.23602281
Ag      16.32702294       2.20355753       6.29027534
Ag      16.33131827       2.17428555      10.30554504
Ag      16.33131816       2.17428575      14.32059242
Ag      16.32702268       2.20355803      18.33586229
Ag      16.33658883       2.23602386      22.39011439
Ag      16.32702277       6.29027625       2.20355759
Ag      16.32702243       6.29027639      22.42257939
Ag      16.33131787      10.30554577       2.17428603
Ag      16.33131767      10.30554625      22.45185084
Ag      16.33131755      14.32059239       2.17428622
Ag      16.33131773      14.32059306      22.45185043
Ag      16.32702188      18.33586136       2.20355828
Ag      16.32702242      18.33586179      22.42257822
Ag      16.33658802      22.39011363       2.23602444
Ag      16.32702164      22.42257905       6.29027707
Ag      16.33131707      22.45185042      10.30554617
Ag      16.33131734      22.45185000      14.32059245
Ag      16.32702226      22.42257807      18.33586114
Ag      16.33658847      22.39011277      22.39011234
Ag      20.34623166       2.25035983       2.25035925
Ag      20.34825964       2.23007539       6.29287441
Ag      20.35952359       2.21596483      10.30264230
Ag      20.35952355       2.21596496      14.32349505
Ag      20.34825950       2.23007572      18.33326319
Ag      20.34623143       2.25036008      22.37577811
Ag      20.34825920       6.29287528       2.23007536
Ag      20.34825904       6.29287537      22.39606181
Ag      20.35952271      10.30264303       2.21596510
Ag      20.35952264      10.30264353      22.41017194
Ag      20.35952252      14.32349507       2.21596509
Ag      20.35952246      14.32349588      22.41017159
Ag      20.34825851      18.33326244       2.23007552
Ag      20.34825840      18.33326301      22.39606082
Ag      20.34623029      22.37577781       2.25036019
Ag      20.34825805      22.39606190       6.29287587
Ag      20.35952160      22.41017179      10.30264339
Ag      20.35952156      22.41017130      14.32349526
Ag      20.34825795      22.39606073      18.33326239
Ag      20.34623021      22.37577678      22.37577639
Ag       2.25035945       4.27990649       2.25035921
Ag       2.23007536       4.27787843       6.29287481
Ag       2.21596511       4.26661461      10.30264299
Ag       2.21596553       4.26661471      14.32349560
Ag       2.23007632       4.27787868      18.33326327
Ag       2.25036041       4.27990677      22.37577765
Ag       2.23602363       8.28954951       2.23602331
Ag       2.20355812       8.29911554       6.29027596
Ag       2.17428645       8.29482004      10.30554575
Ag       2.17428686       8.29481984      14.32059279
Ag       2.20355901       8.29911507      18.33586201
Ag       2.23602450       8.28954919      22.39011361
Ag       2.23072915      12.31306990       2.23072884
Ag       2.19238907      12.31306988       6.28368280
Ag       2.15580517      12.31306967      10.30289405
Ag       2.15580534      12.31306926      14.32324381
Ag       2.19238939      12.31306891      18.34245479
Ag       2.23072942      12.31306920      22.39540866
Ag       2.23602466      16.33658974       2.23602440
Ag       2.20355921      16.32702364       6.29027596