1099
Properties=species:S:1:pos:R:3 Geometry=T Step:=T 18=T pbc="F F F"
Ag       0.60945551       0.60945381       0.60945391
Ag       0.60101765       0.60101584       4.54170365
Ag       0.58828380       0.58828184       8.44045152
Ag       0.58533465       0.58533245      12.31306796
Ag       0.58828470       0.58828240      16.18568500
Ag       0.60101855       0.60101611      20.08443369
Ag       0.60945525       0.60945260      24.01668352
Ag       0.60101736       4.54170339       0.60101600
Ag       0.50537252       4.55623990       4.55624006
Ag       0.50634432       4.55068332       8.44139730
Ag       0.50949277       4.55189404      12.31306844
Ag       0.50634542       4.55068328      16.18474006
Ag       0.50537350       4.55623944      20.06989755
Ag       0.60101740       4.54170133      24.02512112
Ag       0.58828344       8.44045176       0.58828229
Ag       0.50634414       8.44139719       4.55068371
Ag       0.49825462       8.44339074       8.44339096
Ag       0.50594333       8.44286811      12.31306855
Ag       0.49825611       8.44339070      16.18274689
Ag       0.50634549       8.44139691      20.07545437
Ag       0.58828318       8.44044969      24.03785494
Ag       0.58533397      12.31306887       0.58533285
Ag       0.50949218      12.31306835       4.55189471
Ag       0.50594281      12.31306861       8.44286850
Ag       0.51496623      12.31306872      12.31306857
Ag       0.50594463      12.31306858      16.18326962
Ag       0.50949365      12.31306838      20.07424378
Ag       0.58533357      12.31306775      24.04080434
Ag       0.58828318      16.18568558       0.58828188
Ag       0.50634380      16.18473973       4.55068377
Ag       0.49825429      16.18274661       8.44339105
Ag       0.50594333      16.18326943      12.31306868
Ag       0.49825640      16.18274665      16.18274726
Ag       0.50634554      16.18474003      20.07545476
Ag       0.58828302      16.18568640      24.03785493
Ag       0.60101676      20.08443316       0.60101510
Ag       0.50537171      20.06989732       4.55623969
Ag       0.50634340      20.07545413       8.44139704
Ag       0.50949203      20.07424351      12.31306828
Ag       0.50634491      20.07545413      16.18474054
Ag       0.50537281      20.06989781      20.06989828
Ag       0.60101635      20.08443576      24.02512165
Ag       0.60945509      24.01668314       0.60945302
Ag       0.60101623      24.02512194       4.54170266
Ag       0.58828243      24.03785576       8.44045016
Ag       0.58533314      24.04080513      12.31306704
Ag       0.58828297      24.03785537      16.18568528
Ag       0.60101680      24.02512171      20.08443463
Ag       0.60945317      24.01668563      24.01668488
Ag       4.54170522       0.60101607       0.60101648
Ag       4.55624166       0.50537183       4.55624059
Ag       4.55068507       0.50634407       8.44139790
Ag       4.55189582       0.50949272      12.31306898
Ag       4.55068493       0.50634524      16.18473997
Ag       4.55624133       0.50537299      20.06989688
Ag       4.54170527       0.60101648      24.02511963
Ag       4.55624138       4.55624016       0.50537171
Ag       4.55624083       4.55623963      24.12076445
Ag       4.55068464       8.44139736       0.50634368
Ag       4.55068366       8.44139677      24.11979222
Ag       4.55189543      12.31306832       0.50949194
Ag       4.55189434      12.31306801      24.11664414
Ag       4.55068465      16.18473948       0.50634346
Ag       4.55068374      16.18473975      24.11979246
Ag       4.55624104      20.06989690       0.50537099
Ag       4.55624019      20.06989775      24.12076537
Ag       4.54170461      24.02512153       0.60101483
Ag       4.55624082      24.12076645       4.55623975
Ag       4.55068405      24.11979458       8.44139716
Ag       4.55189455      24.11664587      12.31306838
Ag       4.55068376      24.11979305      16.18474049
Ag       4.55624015      24.12076534      20.06989808
Ag       4.54170282      24.02512219      24.02512145
Ag       8.44045310       0.58828232       0.58828309
Ag       8.44139877       0.50634405       4.55068457
Ag       8.44339218       0.49825526       8.44339187
Ag       8.44286947       0.50594416      12.31306928
Ag       8.44339188       0.49825635      16.18274648
Ag       8.44139853       0.50634527      20.07545277
Ag       8.44045406       0.58828303      24.03785287
Ag       8.44139843       4.55068387       0.50634384
Ag       8.44139829       4.55068359      24.11979213
Ag       8.44339163       8.44339107       0.49825457
Ag       8.44339118       8.44339043      24.12788107
Ag       8.44286895      12.31306845       0.50594317
Ag       8.44286856      12.31306811      24.12019268
Ag       8.44339172      16.18274608       0.49825454
Ag       8.44339137      16.18274643      24.12788104
Ag       8.44139821      20.07545331       0.50634321
Ag       8.44139791      20.07545418      24.11979263
Ag       8.44045171      24.03785506       0.58828141
Ag       8.44139810      24.11979431       4.55068359
Ag       8.44339142      24.12788351       8.44339096
Ag       8.44286842      24.12019445      12.31306862
Ag       8.44339097      24.12788154      16.18274715
Ag       8.44139762      24.11979268      20.07545441
Ag       8.44045164      24.03785576      24.03785489
Ag      12.31306952       0.58533305       0.58533407
Ag      12.31306941       0.50949242       4.55189571
Ag      12.31306944       0.50594371       8.44286951
Ag      12.31306943       0.51496687      12.31306923
Ag      12.31306942       0.50594427      16.18326868
Ag      12.31306969       0.50949301      20.07424142
Ag      12.31307092       0.58533357      24.04080206
Ag      12.31306904       4.55189495       0.50949220
Ag      12.31306981       4.55189454      24.11664434
Ag      12.31306880       8.44286887       0.50594321
Ag      12.31306961       8.44286785      24.12019322
Ag      12.31306879      12.31306869       0.51496659
Ag      12.31306958      12.31306816      24.11116999
Ag      12.31306915      16.18326875       0.50594362
Ag      12.31306970      16.18326922      24.12019258
Ag      12.31306919      20.07424244       0.50949197
Ag      12.31306978      20.07424348      24.11664417
Ag      12.31306827      24.04080392       0.58533250
Ag      12.31306917      24.11664551       4.55189446
Ag      12.31306917      24.12019439       8.44286834
Ag      12.31306894      24.11117106      12.31306842
Ag      12.31306909      24.12019300      16.18326942
Ag      12.31306933      24.11664435      20.07424328
Ag      12.31306973      24.04080504      24.04080411
Ag      16.18568582       0.58828267       0.58828356
Ag      16.18473972       0.50634434       4.55068485
Ag      16.18274608       0.49825523       8.44339211
Ag      16.18326861       0.50594379      12.31306930
Ag      16.18274614       0.49825581      16.18274608
Ag      16.18474006       0.50634493      20.07545209
Ag      16.18568655       0.58828343      24.03785246
Ag      16.18473967       4.55068441       0.50634411
Ag      16.18474047       4.55068434      24.11979243
Ag      16.18274610       8.44339176       0.49825500
Ag      16.18274713       8.44339090      24.12788137
Ag      16.18326892      12.31306880       0.50594411
Ag      16.18326980      12.31306822      24.12019227
Ag      16.18274675      16.18274613       0.49825604
Ag      16.18274728      16.18274634      24.12787988
Ag      16.18474043      20.07545311       0.50634458
Ag      16.18474110      20.07545373      24.11979135
Ag      16.18568594      24.03785401       0.58828247
Ag      16.18474051      24.11979283       4.55068389
Ag      16.18274706      24.12788170       8.44339112
Ag      16.18326968      24.12019305      12.31306849
Ag      16.18274717      24.12788050      16.18274654
Ag      16.18474091      24.11979168      20.07545361
Ag      16.18568762      24.03785467      24.03785404
Ag      20.08443350       0.60101661       0.60101727
Ag      20.06989665       0.50537251       4.55624123
Ag      20.07545266       0.50634450       8.44139847
Ag      20.07424152       0.50949285      12.31306925
Ag      20.07545229       0.50634509      16.18473957
Ag      20.06989644       0.50537309      20.06989575
Ag      20.08443309       0.60101732      24.02511884
Ag      20.06989692       4.55624095       0.50537223
Ag      20.06989694       4.55624102      24.12076432
Ag      20.07545348       8.44139802       0.50634430
Ag      20.07545357       8.44139748      24.11979212
Ag      20.07424281      12.31306849       0.50949303
Ag      20.07424287      12.31306793      24.11664324
Ag      20.07545379      16.18473938       0.50634519
Ag      20.07545374      16.18473928      24.11979071
Ag      20.06989765      20.06989652       0.50537259
Ag      20.06989792      20.06989677      24.12076346
Ag      20.08443465      24.02512026       0.60101625
Ag      20.06989780      24.12076479       4.55624035
Ag      20.07545427      24.11979251       8.44139758
Ag      20.07424352      24.11664415      12.31306853
Ag      20.07545421      24.11979153      16.18473990
Ag      20.06989802      24.12076381      20.06989698
Ag      20.08443592      24.02512040      24.02512018
Ag      24.01668315       0.60945488       0.60945540
Ag      24.02512059       0.60101718       4.54170554
Ag      24.03785399       0.58828354       8.44045347
Ag      24.04080299       0.58533433      12.31306944
Ag      24.03785326       0.58828411      16.18568478
Ag      24.02511981       0.60101781      20.08443124
Ag      24.01668233       0.60945546      24.01668067
Ag      24.02512150       4.54170404       0.60101696
Ag      24.12076552       4.55624110       4.55624113
Ag      24.11979341       4.55068497       8.44139836
Ag      24.11664501       4.55189590      12.31306918
Ag      24.11979272       4.55068523      16.18473969
Ag      24.12076484       4.55624131      20.06989592
Ag      24.02512075       4.54170412      24.02511925
Ag      24.03785525       8.44045136       0.58828316
Ag      24.11979345       8.44139787       4.55068464
Ag      24.12788253       8.44339162       8.44339189
Ag      24.12019391       8.44286890      12.31306931
Ag      24.12788155       8.44339147      16.18274651
Ag      24.11979249       8.44139770      20.07545259
Ag      24.03785427       8.44045045      24.03785275
Ag      24.04080445      12.31306764       0.58533390
Ag      24.11664478      12.31306813       4.55189563
Ag      24.12019338      12.31306834       8.44286942
Ag      24.11117009      12.31306825      12.31306934
Ag      24.12019214      12.31306823      16.18326917
Ag      24.11664351      12.31306797      20.07424187
Ag      24.04080336      12.31306653      24.04080182
Ag      24.03785480      16.18568472       0.58828336
Ag      24.11979262      16.18473916       4.55068479
Ag      24.12788116      16.18274595       8.44339191
Ag      24.12019231      16.18326866      12.31306924
Ag      24.12787969      16.18274599      16.18274660
Ag      24.11979103      16.18473916      20.07545279
Ag      24.03785375      16.18568429      24.03785232
Ag      24.02512138      20.08443299       0.60101668
Ag      24.12076535      20.06989641       4.55624075
Ag      24.11979277      20.07545305       8.44139797
Ag      24.11664423      20.07424237      12.31306889
Ag      24.11979159      20.07545295      16.18473998
Ag      24.12076406      20.06989640      20.06989667
Ag      24.02512082      20.08443336      24.02511929
Ag      24.01668452      24.01668294       0.60945345
Ag      24.02512182      24.02512042       4.54170310
Ag      24.03785532      24.03785406       8.44045122
Ag      24.04080473      24.04080349      12.31306839
Ag      24.03785489      24.03785360      16.18568577
Ag      24.02512127      24.02511976      20.08443394
Ag      24.01668501      24.01668335      24.01668333
Ag       0.56552776       2.58128266       2.58128286
Ag       0.54243193       2.57214073       6.50033470
Ag       0.54816527       2.57286403      10.37892258
Ag       0.54816568       2.57286413      14.24721388
Ag       0.54243289       2.57214102      18.12580258
Ag       0.56552779       2.58128182      22.04485419
Ag       0.54243167       6.50033464       2.57214092
Ag       0.49726512       6.50110960       6.50110987
Ag       0.50160242       6.49972465      10.37897553
Ag       0.50160310       6.49972457      14.24716177
Ag       0.49726678       6.50110955      18.12502816
Ag       0.54243201       6.50033325      22.05399585
Ag       0.54816487      10.37892289       2.57286435
Ag       0.50160214      10.37897538       6.49972517
Ag       0.50867826      10.38004305      10.38004302
Ag       0.50867910      10.38004297      14.24609432
Ag       0.50160412      10.37897549      18.12641330
Ag       0.54816487      10.37892192      22.05327241
Ag       0.54816485      14.24721433       2.57286419
Ag       0.50160197      14.24716151       6.49972523
Ag       0.50867819      14.24609445      10.38004308
Ag       0.50867924      14.24609438      14.24609447
Ag       0.50160430      14.24716163      18.12641353
Ag       0.54816474      14.24721427      22.05327238
Ag       0.54243144      18.12580241       2.57214035
Ag       0.49726450      18.12502762       6.50110990
Ag       0.50160199      18.12641291      10.37897557
Ag       0.50160305      18.12641297      14.24716202
Ag       0.49726683      18.12502777      18.12502878
Ag       0.54243143      18.12580361      22.05399578
Ag       0.56552726      22.04485455       2.58128177
Ag       0.54243080      22.05399686       6.50033386
Ag       0.54816398      22.05327336      10.37892178
Ag       0.54816437      22.05327308      14.24721378
Ag       0.54243162      22.05399594      18.12580329
Ag       0.56552600      22.04485533      22.04485465
Ag      24.06061051       2.58128342       2.58128414
Ag      24.08370585       2.57214181       6.50033622
Ag      24.07797225       2.57286531      10.37892397
Ag      24.07797185       2.57286556      14.24721440
Ag      24.08370507       2.57214236      18.12580131
Ag      24.06060989       2.58128371      22.04485233
Ag      24.08370656       6.50033520       2.57214191
Ag      24.12887251       6.50111097       6.50111075
Ag      24.12453517       6.49972610      10.37897640
Ag      24.12453471       6.49972606      14.24716201
Ag      24.12887159       6.50111100      18.12502708
Ag      24.08370584       6.50033487      22.05399444
Ag      24.07797311      10.37892248       2.57286559
Ag      24.12453468      10.37897575       6.49972606
Ag      24.11745842      10.38004315      10.38004399
Ag      24.11745779      10.38004301      14.24609468
Ag      24.12453337      10.37897564      18.12641209
Ag      24.07797225      10.37892181      22.05327069
Ag      24.07797284      14.24721345       2.57286579
Ag      24.12453404      14.24716112       6.49972608
Ag      24.11745760      14.24609376      10.38004397
Ag      24.11745687      14.24609372      14.24609466
Ag      24.12453238      14.24716112      18.12641222
Ag      24.07797189      14.24721306      22.05327054
Ag      24.08370617      18.12580180       2.57214245
Ag      24.12887131      18.12502693       6.50111080
Ag      24.12453357      18.12641210      10.37897632
Ag      24.12453281      18.12641213      14.24716198
Ag      24.12886952      18.12502697      18.12502737
Ag      24.08370521      18.12580192      22.05399392
Ag      24.06061163      22.04485325       2.58128320
Ag      24.08370667      22.05399465       6.50033469
Ag      24.07797330      22.05327131      10.37892290
Ag      24.07797290      22.05327116      14.24721438
Ag      24.08370571      22.05399415      18.12580270
Ag      24.06061151      22.04485329      22.04485340
Ag       2.58128444       0.56552644       2.58128307
Ag       2.57214263       0.54243078       6.50033496
Ag       2.57286606       0.54816416      10.37892286
Ag       2.57286628       0.54816452      14.24721402
Ag       2.57214313       0.54243157      18.12580236
Ag       2.58128457       0.56552608      22.04485396
Ag       2.58128354      24.06061089       2.58128184
Ag       2.57214133      24.08370727       6.50033394
Ag       2.57286483      24.07797406      10.37892187
Ag       2.57286510      24.07797371      14.24721381
Ag       2.57214224      24.08370659      18.12580320
Ag       2.58128320      24.06061247      22.04485456
Ag       6.50033625       0.54243096       2.57214171
Ag       6.50111125       0.49726516       6.50111061
Ag       6.49972617       0.50160296      10.37897636
Ag       6.49972602       0.50160365      14.24716212
Ag       6.50111075       0.49726678      18.12502740
Ag       6.50033623       0.54243180      22.05399479
Ag       6.50033532      24.08370683       2.57214032
Ag       6.50111053      24.12887351       6.50110991
Ag       6.49972515      24.12453586      10.37897563
Ag       6.49972486      24.12453479      14.24716203
Ag       6.50110986      24.12887119      18.12502860
Ag       6.50033446      24.08370687      22.05399553
Ag      10.37892403       0.54816436       2.57286548
Ag      10.37897677       0.50160267       6.49972607
Ag      10.38004418       0.50867916      10.38004397
Ag      10.38004410       0.50867956      14.24609445
Ag      10.37897655       0.50160364      18.12641182
Ag      10.37892469       0.54816495      22.05327103
Ag      10.37892300      24.07797334       2.57286413
Ag      10.37897636      24.12453575       6.49972501
Ag      10.38004338      24.11745937      10.38004293
Ag      10.38004327      24.11745851      14.24609435
Ag      10.37897600      24.12453372      18.12641329
Ag      10.37892342      24.07797359      22.05327197
Ag      14.24721480       0.54816455       2.57286563
Ag      14.24716195       0.50160276       6.49972625
Ag      14.24609449       0.50867906      10.38004409
Ag      14.24609451       0.50867935      14.24609436
Ag      14.24716211       0.50160339      18.12641148
Ag      14.24721558       0.54816508      22.05327074
Ag      14.24721452      24.07797286       2.57286460
Ag      14.24716232      24.12453480       6.49972511
Ag      14.24609468      24.11745847      10.38004299
Ag      14.24609473      24.11745787      14.24609414
Ag      14.24716236      24.12453321      18.12641290
Ag      14.24721555      24.07797302      22.05327159
Ag      18.12580233       0.54243146       2.57214209
Ag      18.12502679       0.49726544       6.50111094
Ag      18.12641150       0.50160277      10.37897655
Ag      18.12641142       0.50160312      14.24716191
Ag      18.12502679       0.49726610      18.12502670
Ag      18.12580254       0.54243208      22.05399427
Ag      18.12580325      24.08370570       2.57214175
Ag      18.12502820      24.12887136       6.50111021
Ag      18.12641317      24.12453387      10.37897571
Ag      18.12641325      24.12453328      14.24716158
Ag      18.12502832      24.12886988      18.12502761
Ag      18.12580423      24.08370544      22.05399456
Ag      22.04485438       0.56552745       2.58128413
Ag      22.05399584       0.54243195       6.50033624
Ag      22.05327210       0.54816539      10.37892400
Ag      22.05327175       0.54816573      14.24721441
Ag      22.05399518       0.54243261      18.12580126
Ag      22.04485388       0.56552792      22.04485234
Ag      22.04485478      24.06061047       2.58128303
Ag      22.05399598      24.08370581       6.50033451
Ag      22.05327255      24.07797259      10.37892273
Ag      22.05327242      24.07797224      14.24721427
Ag      22.05399557      24.08370493      18.12580278
Ag      22.04485509      24.06061047      22.04485355
Ag       2.58128437       2.58128281       0.56552654
Ag       2.58128447       2.58128195      24.06061057
Ag       2.57214215       6.50033477       0.54243075
Ag       2.57214239       6.50033329      24.08370606
Ag       2.57286536      10.37892294       0.54816414
Ag       2.57286555      10.37892179      24.07797299
Ag       2.57286523      14.24721427       0.54816410
Ag       2.57286566      14.24721406      24.07797315
Ag       2.57214168      18.12580223       0.54243045
Ag       2.57214244      18.12580352      24.08370656
Ag       2.58128361      22.04485435       0.56552581
Ag       2.58128328      22.04485526      24.06061202
Ag       6.50033613       2.57214110       0.54243116
Ag       6.50033608       2.57214141      24.08370495
Ag       6.50111085       6.50110996       0.49726469
Ag       6.50110999       6.50110957      24.12887078
Ag       6.49972577      10.37897545       0.50160213
Ag       6.49972477      10.37897510      24.12453337
Ag       6.49972579      14.24716126       0.50160209
Ag       6.49972490      14.24716121      24.12453348
Ag       6.50111082      18.12502710       0.49726435
Ag       6.50111003      18.12502765      24.12887105
Ag       6.50033540      22.05399625       0.54243011
Ag       6.50033450      22.05399585      24.08370648
Ag      10.37892386       2.57286459       0.54816470
Ag      10.37892471       2.57286474      24.07797166
Ag      10.37897620       6.49972539       0.50160213
Ag      10.37897642       6.49972459      24.12453401
Ag      10.38004345      10.38004323       0.50867857
Ag      10.38004375      10.38004248      24.11745771
Ag      10.38004354      14.24609405       0.50867867
Ag      10.38004382      14.24609400      24.11745762
Ag      10.37897644      18.12641208       0.50160213
Ag      10.37897657      18.12641295      24.12453368
Ag      10.37892301      22.05327244       0.54816362
Ag      10.37892363      22.05327260      24.07797311
Ag      14.24721467       2.57286473       0.54816491
Ag      14.24721566       2.57286501      24.07797151
Ag      14.24716159       6.49972574       0.50160228
Ag      14.24716256       6.49972494      24.12453421
Ag      14.24609412      10.38004352       0.50867893
Ag      14.24609520      10.38004261      24.11745763
Ag      14.24609438      14.24609409       0.50867936
Ag      14.24609519      14.24609396      24.11745712
Ag      14.24716226      18.12641207       0.50160298
Ag      14.24716280      18.12641283      24.12453292
Ag      14.24721452      22.05327199       0.54816409
Ag      14.24721573      22.05327222      24.07797253
Ag      18.12580240       2.57214150       0.54243171
Ag      18.12580274       2.57214201      24.08370465
Ag      18.12502708       6.50111086       0.49726509
Ag      18.12502771       6.50111046      24.12887136
Ag      18.12641218      10.37897614       0.50160294
Ag      18.12641284      10.37897547      24.12453336
Ag      18.12641250      14.24716150       0.50160359
Ag      18.12641291      14.24716122      24.12453247
Ag      18.12502793      18.12502704       0.49726628
Ag      18.12502824      18.12502736      24.12886938
Ag      18.12580318      22.05399493       0.54243123
Ag      18.12580426      22.05399483      24.08370511
Ag      22.04485441       2.58128340       0.56552770
Ag      22.04485393       2.58128366      24.06060869
Ag      22.05399633       6.50033518       0.54243151
Ag      22.05399574       6.50033473      24.08370488
Ag      22.05327277      10.37892263       0.54816494
Ag      22.05327209      10.37892176      24.07797135
Ag      22.05327256      14.24721361       0.54816516
Ag      22.05327186      14.24721306      24.07797102
Ag      22.05399584      18.12580187       0.54243178
Ag      22.05399524      18.12580203      24.08370427
Ag      22.04485476      22.04485333       0.56552631
Ag      22.04485504      22.04485347      24.06061029
Pt       4.58211967       4.58211884       4.58211901
Pt       4.58552778       4.58552718       8.44147502
Pt       4.58810202       4.58810182      12.31306927
Pt       4.58552751       4.58552767      16.18466360
Pt       4.58211929       4.58211910      20.04401847
Pt       4.58552762       8.44147460       4.58552727
Pt       4.58244788       8.44248106       8.44248166
Pt       4.58696721       8.44219216      12.31306964
Pt       4.58244758       8.44248140      16.18365772
Pt       4.58552700       8.44147458      20.04061059
Pt       4.58810211      12.31306845       4.58810189
Pt       4.58696747      12.31306851       8.44219277
Pt       4.59292510      12.31306876      12.31306986
Pt       4.58696734      12.31306888      16.18394692
Pt       4.58810144      12.31306859      20.03803632
Pt       4.58552774      16.18466262       4.58552742
Pt       4.58244790      16.18365639       8.44248185
Pt       4.58696742      16.18394563      12.31307004
Pt       4.58244811      16.18365654      16.18365806
Pt       4.58552732      16.18466288      20.04061080
Pt       4.58211937      20.04401859       4.58211873
Pt       4.58552732      20.04061060       8.44147488
Pt       4.58810174      20.03803599      12.31306953
Pt       4.58552768      20.04060992      16.18466415
Pt       4.58211936      20.04401836      20.04401895
Pt       8.44147528       4.58552735       4.58552753
Pt       8.44248146       4.58244821       8.44248177
Pt       8.44219185       4.58696816      12.31306935
Pt       8.44248037       4.58244890      16.18365714
Pt       8.44147415       4.58552784      20.04060985
Pt       8.44248158       8.44248140       4.58244805
Pt       8.44202874       8.44202886       8.44202937
Pt       8.44435683       8.44435781      12.31306976
Pt       8.44202734       8.44202933      16.18411039
Pt       8.44248011       8.44248146      20.04368958
Pt       8.44219268      12.31306857       4.58696795
Pt       8.44435787      12.31306860       8.44435840
Pt       8.44623828      12.31306891      12.31307009
Pt       8.44435645      12.31306918      16.18178183
Pt       8.44219133      12.31306883      20.03917019
Pt       8.44248193      16.18365612       4.58244830
Pt       8.44202935      16.18410896       8.44202971
Pt       8.44435743      16.18178051      12.31307037
Pt       8.44202806      16.18410943      16.18411087
Pt       8.44248072      16.18365669      20.04369001
Pt       8.44147531      20.04061024       4.58552728
Pt       8.44248173      20.04368995       8.44248180
Pt       8.44219220      20.03917013      12.31306988
Pt       8.44248097      20.04368920      16.18365793
Pt       8.44147462      20.04061014      20.04061060
Pt      12.31306894       4.58810206       4.58810198
Pt      12.31306866       4.58696814       8.44219250
Pt      12.31306837       4.59292621      12.31306899
Pt      12.31306827       4.58696857      16.18394580
Pt      12.31306861       4.58810234      20.03803521
Pt      12.31306882       8.44219288       4.58696764
Pt      12.31306854       8.44435833       8.44435782
Pt      12.31306817       8.44623947      12.31306923
Pt      12.31306799       8.44435850      16.18178106
Pt      12.31306832       8.44219274      20.03916970
Pt      12.31306910      12.31306896       4.59292598
Pt      12.31306910      12.31306921       8.44623924
Pt      12.31306869      12.31306942      12.31306947
Pt      12.31306843      12.31306956      16.17990007
Pt      12.31306865      12.31306916      20.03321194
Pt      12.31306963      16.18394527       4.58696817
Pt      12.31306983      16.18178035       8.44435825
Pt      12.31306932      16.17989966      12.31306965
Pt      12.31306898      16.18178108      16.18178147
Pt      12.31306913      16.18394609      20.03917003
Pt      12.31306958      20.03803559       4.58810193
Pt      12.31306971      20.03917007       8.44219266
Pt      12.31306931      20.03321224      12.31306941
Pt      12.31306914      20.03916982      16.18394651
Pt      12.31306931      20.03803586      20.03803591
Pt      16.18466260       4.58552786       4.58552745
Pt      16.18365589       4.58244868       8.44248134
Pt      16.18394493       4.58696849      12.31306897
Pt      16.18365610       4.58244917      16.18365669
Pt      16.18466292       4.58552818      20.04060950
Pt      16.18365605       8.44248232       4.58244782
Pt      16.18410837       8.44203008       8.44202870
Pt      16.18177954       8.44435888      12.31306921
Pt      16.18410856       8.44203022      16.18410983
Pt      16.18365636       8.44248219      20.04368915
Pt      16.18394534      12.31306937       4.58696810
Pt      16.18177994      12.31306988       8.44435788
Pt      16.17989877      12.31307005      12.31306940
Pt      16.18178007      12.31307017      16.18178110
Pt      16.18394562      12.31306963      20.03916937
Pt      16.18365687      16.18365640       4.58244884
Pt      16.18410948      16.18410952       8.44202937
Pt      16.18178060      16.18178116      12.31306950
Pt      16.18410945      16.18411014      16.18410998
Pt      16.18365706      16.18365722      20.04368892
Pt      16.18466353      20.04060968       4.58552784
Pt      16.18365714      20.04368932       8.44248169
Pt      16.18394604      20.03916979      12.31306929
Pt      16.18365705      20.04368908      16.18365720
Pt      16.18466367      20.04060982      20.04060972
Pt      20.04401830       4.58211965       4.58211930
Pt      20.04060970       4.58552814       8.44147491
Pt      20.03803506       4.58810272      12.31306897
Pt      20.04060942       4.58552854      16.18466294
Pt      20.04401814       4.58211990      20.04401766
Pt      20.04061007       8.44147554       4.58552741
Pt      20.04368927       8.44248229       8.44248130
Pt      20.03916943       8.44219326      12.31306918
Pt      20.04368879       8.44248241      16.18365694
Pt      20.04060980       8.44147547      20.04060960
Pt      20.03803546      12.31306906       4.58810228
Pt      20.03916945      12.31306949       8.44219257
Pt      20.03321134      12.31306963      12.31306937
Pt      20.03916888      12.31306976      16.18394609
Pt      20.03803517      12.31306933      20.03803501
Pt      20.04060989      16.18466266       4.58552816
Pt      20.04368909      16.18365668       8.44248180
Pt      20.03916923      16.18394601      12.31306944
Pt      20.04368844      16.18365707      16.18365710
Pt      20.04060951      16.18466320      20.04060926