1099
Properties=species:S:1:pos:R:3 Geometry=T Step:=T 11=T pbc="F F F"
Ag       0.46817086       0.46817080       0.46817082
Ag       0.44688814       0.44688800       4.41985082
Ag       0.42482491       0.42482469       8.37442576
Ag       0.41676609       0.41676586      12.31306846
Ag       0.42482484       0.42482458      16.25171148
Ag       0.44688822       0.44688784      20.20628709
Ag       0.46817113       0.46817053      24.15796697
Ag       0.44688745       4.41985028       0.44688772
Ag       0.39094386       4.43749536       4.43749576
Ag       0.36273882       4.42485715       8.38861993
Ag       0.36488186       4.42035757      12.31306860
Ag       0.36273889       4.42485694      16.23751750
Ag       0.39094412       4.43749507      20.18864239
Ag       0.44688780       4.41985006      24.17925008
Ag       0.42482335       8.37442490       0.42482385
Ag       0.36273800       8.38861910       4.42485756
Ag       0.32367349       8.38987619       8.38987750
Ag       0.32358000       8.38619775      12.31306882
Ag       0.32367362       8.38987661      16.23626024
Ag       0.36273841       8.38861966      20.20128062
Ag       0.42482393       8.37442554      24.20131377
Ag       0.41676371      12.31306782       0.41676425
Ag       0.36488005      12.31306806       4.42035765
Ag       0.32357880      12.31306797       8.38619918
Ag       0.32054782      12.31306830      12.31306925
Ag       0.32357943      12.31306874      16.23993910
Ag       0.36488103      12.31306910      20.20578029
Ag       0.41676489      12.31306913      24.20937281
Ag       0.42482210      16.25171126       0.42482256
Ag       0.36273674      16.23751743       4.42485674
Ag       0.32367194      16.23626011       8.38987791
Ag       0.32357893      16.23993893      12.31306964
Ag       0.32367313      16.23626060      16.23626077
Ag       0.36273828      16.23751817      20.20128076
Ag       0.42482378      16.25171240      24.20131395
Ag       0.44688618      20.20628795       0.44688641
Ag       0.39094278      20.18864309       4.43749493
Ag       0.36273731      20.20128122       8.38862065
Ag       0.36488079      20.20578050      12.31306968
Ag       0.36273841      20.20128079      16.23751808
Ag       0.39094415      20.18864262      20.18864239
Ag       0.44688775      20.20628777      24.17925005
Ag       0.46816936      24.15796830       0.46816937
Ag       0.44688642      24.17925118       4.41984999
Ag       0.42482268      24.20131484       8.37442673
Ag       0.41676437      24.20937319      12.31306995
Ag       0.42482377      24.20131389      16.25171237
Ag       0.44688782      24.17925008      20.20628732
Ag       0.46817080      24.15796732      24.15796704
Ag       4.41985041       0.44688771       0.44688778
Ag       4.43749562       0.39094405       4.43749573
Ag       4.42485752       0.36273895       8.38861983
Ag       4.42035799       0.36488197      12.31306856
Ag       4.42485738       0.36273902      16.23751754
Ag       4.43749549       0.39094419      20.18864224
Ag       4.41985070       0.44688773      24.17924979
Ag       4.43749530       4.43749526       0.39094367
Ag       4.43749533       4.43749508      24.23519377
Ag       4.42485674       8.38861900       0.36273790
Ag       4.42485691       8.38861963      24.26339939
Ag       4.42035672      12.31306792       0.36487995
Ag       4.42035724      12.31306906      24.26125677
Ag       4.42485585      16.23751737       0.36273656
Ag       4.42485675      16.23751826      24.26339952
Ag       4.43749434      20.18864331       0.39094251
Ag       4.43749525      20.18864284      24.23519364
Ag       4.41984925      24.17925170       0.44688606
Ag       4.43749441      24.23519498       4.43749474
Ag       4.42485611      24.26340036       8.38862077
Ag       4.42035692      24.26125682      12.31306988
Ag       4.42485673      24.26339920      16.23751820
Ag       4.43749523      24.23519362      20.18864239
Ag       4.41985039      24.17925030      24.17924990
Ag       8.37442525       0.42482409       0.42482425
Ag       8.38861946       0.36273866       4.42485752
Ag       8.38987667       0.32367405       8.38987716
Ag       8.38619819       0.32358049      12.31306862
Ag       8.38987699       0.32367412      16.23626033
Ag       8.38861987       0.36273880      20.20128039
Ag       8.37442603       0.42482433      24.20131321
Ag       8.38861943       4.42485678       0.36273831
Ag       8.38861994       4.42485679      24.26339914
Ag       8.38987657       8.38987583       0.32367281
Ag       8.38987706       8.38987652      24.30246444
Ag       8.38619788      12.31306746       0.32357794
Ag       8.38619818      12.31306873      24.30255860
Ag       8.38987646      16.23625988       0.32367087
Ag       8.38987655      16.23626087      24.30246483
Ag       8.38861944      20.20128195       0.36273638
Ag       8.38861944      20.20128125      24.26339937
Ag       8.37442522      24.20131615       0.42482166
Ag       8.38861945      24.26340110       4.42485609
Ag       8.38987651      24.30246592       8.38987820
Ag       8.38619784      24.30255875      12.31307015
Ag       8.38987642      24.30246443      16.23626107
Ag       8.38861939      24.26339935      20.20128081
Ag       8.37442529      24.20131430      24.20131385
Ag      12.31306825       0.41676508       0.41676525
Ag      12.31306844       0.36488141       4.42035782
Ag      12.31306840       0.32358005       8.38619862
Ag      12.31306853       0.32054869      12.31306877
Ag      12.31306876       0.32358022      16.23993912
Ag      12.31306891       0.36488158      20.20577996
Ag      12.31306908       0.41676559      24.20937201
Ag      12.31306849       4.42035702       0.36488116
Ag      12.31306898       4.42035728      24.26125626
Ag      12.31306839       8.38619705       0.32357896
Ag      12.31306881       8.38619764      24.30255820
Ag      12.31306828      12.31306723       0.32054617
Ag      12.31306839      12.31306832      24.30559036
Ag      12.31306824      16.23993838       0.32357671
Ag      12.31306807      16.23993924      24.30255901
Ag      12.31306837      20.20578182       0.36487885
Ag      12.31306812      20.20578104      24.26125695
Ag      12.31306824      24.20937534       0.41676246
Ag      12.31306825      24.26125867       4.42035618
Ag      12.31306795      24.30256030       8.38619957
Ag      12.31306774      24.30559098      12.31307015
Ag      12.31306772      24.30255884      16.23993974
Ag      12.31306798      24.26125695      20.20578074
Ag      12.31306791      24.20937358      24.20937316
Ag      16.25171142       0.42482389       0.42482399
Ag      16.23751757       0.36273851       4.42485708
Ag      16.23626031       0.32367359       8.38987728
Ag      16.23993899       0.32357998      12.31306898
Ag      16.23626048       0.32367383      16.23626070
Ag      16.23751783       0.36273868      20.20128045
Ag      16.25171193       0.42482455      24.20131309
Ag      16.23751764       4.42485638       0.36273833
Ag      16.23751788       4.42485682      24.26339911
Ag      16.23626032       8.38987573       0.32367269
Ag      16.23626053       8.38987608      24.30246444
Ag      16.23993886      12.31306727       0.32357769
Ag      16.23993889      12.31306799      24.30255896
Ag      16.23626023      16.23625978       0.32367047
Ag      16.23626011      16.23626039      24.30246568
Ag      16.23751746      20.20128241       0.36273610
Ag      16.23751729      20.20128172      24.26340016
Ag      16.25171141      24.20131648       0.42482123
Ag      16.23751729      24.26340146       4.42485543
Ag      16.23625976      24.30246686       8.38987794
Ag      16.23993817      24.30256011      12.31306996
Ag      16.23625961      24.30246579      16.23626110
Ag      16.23751709      24.26340022      20.20128155
Ag      16.25171110      24.20131505      24.20131473
Ag      20.20628733       0.44688758       0.44688753
Ag      20.18864254       0.39094410       4.43749505
Ag      20.20128065       0.36273847       8.38861995
Ag      20.20578008       0.36488134      12.31306905
Ag      20.20128041       0.36273856      16.23751809
Ag      20.18864217       0.39094398      20.18864240
Ag      20.20628684       0.44688798      24.17924978
Ag      20.18864282       4.43749470       0.39094391
Ag      20.18864228       4.43749512      24.23519383
Ag      20.20128141       8.38861890       0.36273789
Ag      20.20128071       8.38861908      24.26339955
Ag      20.20578150      12.31306775       0.36487982
Ag      20.20578064      12.31306819      24.26125730
Ag      20.20128231      16.23751729       0.36273638
Ag      20.20128137      16.23751770      24.26340046
Ag      20.18864378      20.18864394       0.39094258
Ag      20.18864298      20.18864345      24.23519436
Ag      20.20628853      24.17925195       0.44688576
Ag      20.18864373      24.23519508       4.43749392
Ag      20.20128212      24.26340118       8.38862049
Ag      20.20578144      24.26125819      12.31306965
Ag      20.20128162      24.26340062      16.23751821
Ag      20.18864304      24.23519449      20.18864327
Ag      20.20628769      24.17925108      24.17925084
Ag      24.15796737       0.46817023       0.46817006
Ag      24.17925002       0.44688738       4.41985006
Ag      24.20131357       0.42482363       8.37442597
Ag      24.20937230       0.41676489      12.31306934
Ag      24.20131327       0.42482395      16.25171258
Ag      24.17924970       0.44688762      20.20628761
Ag      24.15796658       0.46817070      24.15796717
Ag      24.17925039       4.41984970       0.44688715
Ag      24.23519376       4.43749457       4.43749479
Ag      24.26339933       4.42485612       8.38861996
Ag      24.26125645       4.42035666      12.31306917
Ag      24.26339925       4.42485637      16.23751827
Ag      24.23519383       4.43749491      20.18864274
Ag      24.17924975       4.41985018      24.17925025
Ag      24.20131462       8.37442474       0.42482291
Ag      24.26339982       8.38861878       4.42485618
Ag      24.30246498       8.38987558       8.38987734
Ag      24.30255863       8.38619691      12.31306940
Ag      24.30246470       8.38987568      16.23626118
Ag      24.26339958       8.38861896      20.20128127
Ag      24.20131364       8.37442480      24.20131415
Ag      24.20937427      12.31306764       0.41676320
Ag      24.26125788      12.31306771       4.42035603
Ag      24.30255989      12.31306729       8.38619877
Ag      24.30559126      12.31306729      12.31306957
Ag      24.30255939      12.31306752      16.23993992
Ag      24.26125729      12.31306808      20.20578134
Ag      24.20937314      12.31306792      24.20937370
Ag      24.20131599      16.25171130       0.42482139
Ag      24.26340122      16.23751737       4.42485511
Ag      24.30246693      16.23625993       8.38987735
Ag      24.30256051      16.23993852      12.31306968
Ag      24.30246625      16.23626003      16.23626138
Ag      24.26340043      16.23751759      20.20128210
Ag      24.20131476      16.25171154      24.20131533
Ag      24.17925176      20.20628877       0.44688571
Ag      24.23519499      20.18864407       4.43749376
Ag      24.26340118      20.20128257       8.38862025
Ag      24.26125825      20.20578197      12.31306959
Ag      24.26340066      20.20128211      16.23751837
Ag      24.23519442      20.18864350      20.18864350
Ag      24.17925081      20.20628825      24.17925119
Ag      24.15796885      24.15796897       0.46816870
Ag      24.17925181      24.17925206       4.41984896
Ag      24.20131613      24.20131648       8.37442628
Ag      24.20937474      24.20937513      12.31306978
Ag      24.20131553      24.20131589      16.25171264
Ag      24.17925109      24.17925140      20.20628845
Ag      24.15796795      24.15796824      24.15796815
Ag       0.41003393       2.44007045       2.44007051
Ag       0.38710755       2.42463299       6.40956427
Ag       0.37741179       2.41319662      10.34991857
Ag       0.37741186       2.41319635      14.27621871
Ag       0.38710774       2.42463236      18.21657341
Ag       0.41003446       2.44006991      22.18606771
Ag       0.38710695       6.40956366       2.42463282
Ag       0.35039571       6.41634582       6.41634678
Ag       0.33861554       6.40816597      10.35479394
Ag       0.33861553       6.40816606      14.27134343
Ag       0.35039571       6.41634600      18.20979099
Ag       0.38710743       6.40956383      22.20150562
Ag       0.37741033      10.34991794       2.41319592
Ag       0.33861439      10.35479294       6.40816705
Ag       0.32087048      10.35546797      10.35546926
Ag       0.32087066      10.35546834      14.27066877
Ag       0.33861484      10.35479377      18.21797095
Ag       0.37741118      10.34991871      22.21294213
Ag       0.37740976      14.27621842       2.41319511
Ag       0.33861348      14.27134305       6.40816697
Ag       0.32086972      14.27066827      10.35546965
Ag       0.32087025      14.27066866      14.27066919
Ag       0.33861471      14.27134399      18.21797115
Ag       0.37741110      14.27621940      22.21294209
Ag       0.38710585      18.21657363       2.42463105
Ag       0.35039384      18.20979124       6.41634677
Ag       0.33861393      18.21797110      10.35479486
Ag       0.33861464      18.21797117      14.27134436
Ag       0.35039546      18.20979147      18.20979134
Ag       0.38710732      18.21657395      22.20150547
Ag       0.41003337      22.18606884       2.44006897
Ag       0.38710626      22.20150667       6.40956440
Ag       0.37741050      22.21294256      10.34991952
Ag       0.37741101      22.21294195      14.27621961
Ag       0.38710737      22.20150534      18.21657367
Ag       0.41003425      22.18606769      22.18606752
Ag      24.21610338       2.44006937       2.44006918
Ag      24.23903031       2.42463152       6.40956395
Ag      24.24872642       2.41319535      10.34991883
Ag      24.24872640       2.41319567      14.27621942
Ag      24.23903037       2.42463236      18.21657404
Ag      24.21610372       2.44007027      22.18606758
Ag      24.23903048       6.40956341       2.42463102
Ag      24.27574250       6.41634533       6.41634634
Ag      24.28752296       6.40816526      10.35479424
Ag      24.28752284       6.40816530      14.27134428
Ag      24.27574228       6.41634541      18.20979180
Ag      24.23903048       6.40956356      22.20150550
Ag      24.24872719      10.34991770       2.41319379
Ag      24.28752395      10.35479240       6.40816633
Ag      24.30526828      10.35546711      10.35546934
Ag      24.30526805      10.35546720      14.27066954
Ag      24.28752347      10.35479266      18.21797188
Ag      24.24872685      10.34991795      22.21294261
Ag      24.24872780      14.27621831       2.41319281
Ag      24.28752500      14.27134270       6.40816607
Ag      24.30526938      14.27066764      10.35546945
Ag      24.30526904      14.27066774      14.27066968
Ag      24.28752421      14.27134300      18.21797209
Ag      24.24872723      14.27621864      22.21294343
Ag      24.23903169      18.21657389       2.42462891
Ag      24.27574472      18.20979155       6.41634600
Ag      24.28752529      18.21797144      10.35479456
Ag      24.28752489      18.21797139      14.27134459
Ag      24.27574382      18.20979149      18.20979210
Ag      24.23903113      18.21657386      22.20150727
Ag      24.21610391      22.18607017       2.44006756
Ag      24.23903166      22.20150877       6.40956385
Ag      24.24872793      22.21294503      10.34991923
Ag      24.24872773      22.21294450      14.27621966
Ag      24.23903124      22.20150753      18.21657417
Ag      24.21610382      22.18606904      22.18606893
Ag       2.44007062       0.41003396       2.44007050
Ag       2.42463324       0.38710752       6.40956424
Ag       2.41319694       0.37741174      10.34991855
Ag       2.41319669       0.37741182      14.27621873
Ag       2.42463273       0.38710766      18.21657338
Ag       2.44007037       0.41003423      22.18606757
Ag       2.44006885      24.21610441       2.44006883
Ag       2.42463087      24.23903146       6.40956441
Ag       2.41319497      24.24872719      10.34991961
Ag       2.41319563      24.24872667      14.27621970
Ag       2.42463241      24.23903039      18.21657370
Ag       2.44007032      24.21610375      22.18606746
Ag       6.40956391       0.38710738       2.42463281
Ag       6.41634622       0.35039608       6.41634663
Ag       6.40816644       0.33861583      10.35479375
Ag       6.40816654       0.33861583      14.27134345
Ag       6.41634644       0.35039604      18.20979101
Ag       6.40956422       0.38710755      22.20150520
Ag       6.40956359      24.23903184       2.42463030
Ag       6.41634577      24.27574389       6.41634680
Ag       6.40816594      24.28752367      10.35479516
Ag       6.40816603      24.28752286      14.27134465
Ag       6.41634600      24.27574211      18.20979143
Ag       6.40956395      24.23903053      22.20150528
Ag      10.34991827       0.37741133       2.41319619
Ag      10.35479341       0.33861538       6.40816680
Ag      10.35546839       0.32087126      10.35546878
Ag      10.35546860       0.32087133      14.27066867
Ag      10.35479389       0.33861549      18.21797098
Ag      10.34991874       0.37741157      22.21294139
Ag      10.34991828      24.24872832       2.41319332
Ag      10.35479327      24.28752495       6.40816684
Ag      10.35546801      24.30526856      10.35547024
Ag      10.35546788      24.30526770      14.27066984
Ag      10.35479304      24.28752304      18.21797142
Ag      10.34991806      24.24872687      22.21294211
Ag      14.27621866       0.37741135       2.41319582
Ag      14.27134341       0.33861519       6.40816676
Ag      14.27066854       0.32087099      10.35546893
Ag      14.27066869       0.32087112      14.27066888
Ag      14.27134380       0.33861542      18.21797113
Ag      14.27621904       0.37741153      22.21294119
Ag      14.27621854      24.24872840       2.41319283
Ag      14.27134298      24.28752535       6.40816662
Ag      14.27066776      24.30526923      10.35547011
Ag      14.27066765      24.30526850      14.27066977
Ag      14.27134275      24.28752372      18.21797159
Ag      14.27621829      24.24872721      22.21294275
Ag      18.21657345       0.38710747       2.42463184
Ag      18.20979111       0.35039559       6.41634650
Ag      18.21797099       0.33861515      10.35479408
Ag      18.21797101       0.33861528      14.27134400
Ag      18.20979119       0.35039581      18.20979141
Ag      18.21657345       0.38710743      22.20150478
Ag      18.21657369      24.23903188       2.42462913
Ag      18.20979123      24.27574473       6.41634637
Ag      18.21797094      24.28752507      10.35479489
Ag      18.21797084      24.28752458      14.27134452
Ag      18.20979097      24.27574364      18.20979175
Ag      18.21657334      24.23903121      22.20150676
Ag      22.18606811       0.41003436       2.44006930
Ag      22.20150566       0.38710729       6.40956397
Ag      22.21294171       0.37741112      10.34991879
Ag      22.21294138       0.37741115      14.27621936
Ag      22.20150478       0.38710720      18.21657394
Ag      22.18606702       0.41003386      22.18606740
Ag      22.18606998      24.21610404       2.44006761
Ag      22.20150844      24.23903181       6.40956394
Ag      22.21294463      24.24872810      10.34991930
Ag      22.21294409      24.24872790      14.27621963
Ag      22.20150715      24.23903141      18.21657409
Ag      22.18606870      24.21610405      22.18606882
Ag       2.44007040       2.44007038       0.41003380
Ag       2.44007024       2.44006993      24.21610351
Ag       2.42463234       6.40956365       0.38710701
Ag       2.42463209       6.40956385      24.23903038
Ag       2.41319528      10.34991789       0.37741048
Ag       2.41319553      10.34991868      24.24872659
Ag       2.41319449      14.27621837       0.37740988
Ag       2.41319559      14.27621939      24.24872668
Ag       2.42463057      18.21657364       0.38710587
Ag       2.42463224      18.21657401      24.23903048
Ag       2.44006882      22.18606898       0.41003326
Ag       2.44007030      22.18606780      24.21610358
Ag       6.40956385       2.42463252       0.38710722
Ag       6.40956423       2.42463221      24.23903020
Ag       6.41634599       6.41634567       0.35039532
Ag       6.41634642       6.41634599      24.27574221
Ag       6.40816594      10.35479268       0.33861398
Ag       6.40816640      10.35479369      24.28752306
Ag       6.40816572      14.27134281       0.33861297
Ag       6.40816619      14.27134407      24.28752318
Ag       6.41634564      18.20979130       0.35039324
Ag       6.41634606      18.20979172      24.27574238
Ag       6.40956358      22.20150758       0.38710585
Ag       6.40956397      22.20150573      24.23903033
Ag      10.34991829       2.41319583       0.37741122
Ag      10.34991879       2.41319606      24.24872618
Ag      10.35479345       6.40816558       0.33861473
Ag      10.35479398       6.40816595      24.28752266
Ag      10.35546830      10.35546728       0.32086940
Ag      10.35546861      10.35546823      24.30526752
Ag      10.35546825      14.27066760       0.32086821
Ag      10.35546823      14.27066884      24.30526783
Ag      10.35479336      18.21797125       0.33861220
Ag      10.35479317      18.21797158      24.28752329
Ag      10.34991830      22.21294457       0.37740940
Ag      10.34991810      22.21294251      24.24872665
Ag      14.27621869       2.41319550       0.37741126
Ag      14.27621907       2.41319631      24.24872618
Ag      14.27134343       6.40816549       0.33861469
Ag      14.27134386       6.40816581      24.28752260
Ag      14.27066840      10.35546718       0.32086931
Ag      14.27066865      10.35546788      24.30526757
Ag      14.27066830      14.27066749       0.32086801
Ag      14.27066828      14.27066845      24.30526817
Ag      14.27134325      18.21797130       0.33861194
Ag      14.27134308      18.21797151      24.28752383
Ag      14.27621860      22.21294497       0.37740931
Ag      14.27621837      22.21294307      24.24872700
Ag      18.21657352       2.42463167       0.38710736
Ag      18.21657348       2.42463280      24.23903029
Ag      18.20979127       6.41634549       0.35039518
Ag      18.20979129       6.41634568      24.27574214
Ag      18.21797126      10.35479252       0.33861374
Ag      18.21797114      10.35479290      24.28752328
Ag      18.21797141      14.27134262       0.33861259
Ag      18.21797114      14.27134325      24.28752400
Ag      18.20979148      18.20979141       0.35039276
Ag      18.20979118      18.20979158      24.27574359
Ag      18.21657373      22.20150861       0.38710580
Ag      18.21657339      22.20150701      24.23903102
Ag      22.18606829       2.44006943       0.41003419
Ag      22.18606705       2.44007038      24.21610396
Ag      22.20150653       6.40956347       0.38710716
Ag      22.20150500       6.40956361      24.23903066
Ag      22.21294373      10.34991775       0.37741046
Ag      22.21294203      10.34991797      24.24872707
Ag      22.21294462      14.27621831       0.37740977
Ag      22.21294279      14.27621868      24.24872749
Ag      22.20150851      18.21657385       0.38710586
Ag      22.20150673      18.21657391      24.23903134
Ag      22.18606999      22.18607012       0.41003369
Ag      22.18606862      22.18606901      24.21610389
Ag       4.45647100       2.44781410       2.44781400
Ag       4.46412444       2.42913113       6.44743091
Ag       4.45928404       2.43283033      10.35779319
Ag       4.45928398       2.43283020      14.26834428
Ag       4.46412422       2.42913067      18.17870683
Ag       4.45647080       2.44781372      22.17832402
Ag       4.46412405       6.44743034       2.42913069
Ag       4.46412388       6.44743056      22.19700742
Ag       4.45928325      10.35779253       2.43282929
Ag       4.45928335      10.35779327      22.19330832
Ag       4.45928282      14.26834410       2.43282853
Ag       4.45928336      14.26834491      22.19330825
Ag       4.46412311      18.17870731       2.42912893
Ag       4.46412392      18.17870733      22.19700711
Ag       4.45647002      22.17832560       2.44781221
Ag       4.46412324      22.19700858       6.44743097
Ag       4.45928307      22.19330861      10.35779403
Ag       4.45928335      22.19330787      14.26834496
Ag       4.46412396      22.19700683      18.17870693
Ag       4.45647077      22.17832379      22.17832367
Ag       8.39123267       2.43687064       2.43687061
Ag       8.40575697       2.40729846       6.44699498
Ag       8.40523502       2.40565736      10.36101945
Ag       8.40523509       2.40565741      14.26511813
Ag       8.40575710       2.40729839      18.17914274
Ag       8.39123281       2.43687062      22.18926699
Ag       8.40575686       6.44699411       2.40729802
Ag       8.40575701       6.44699438      22.21883955
Ag       8.40523481      10.36101839       2.40565604
Ag       8.40523494      10.36101916      22.22048109
Ag       8.40523475      14.26511764       2.40565517
Ag       8.40523485      14.26511856      22.22048125
Ag       8.40575669      18.17914338       2.40729599
Ag       8.40575677      18.17914336      22.21883977
Ag       8.39123260      22.18926950       2.43686826
Ag       8.40575672      22.21884136       6.44699488
Ag       8.40523472      22.22048166      10.36102036
Ag       8.40523471      22.22048083      14.26511885
Ag       8.40575677      22.21883940      18.17914299
Ag       8.39123261      22.18926729      22.18926720
Ag      12.31306862       2.43569986       2.43569985
Ag      12.31306859       2.41276916       6.44552423
Ag      12.31306860       2.41042330      10.36133979
Ag      12.31306865       2.41042346      14.26479785
Ag      12.31306878       2.41276943      18.18061349
Ag      12.31306877       2.43570034      22.19043725
Ag      12.31306858       6.44552324       2.41276871
Ag      12.31306876       6.44552362      22.21336842
Ag      12.31306849      10.36133850       2.41042186
Ag      12.31306855      10.36133935      22.21571490
Ag      12.31306840      14.26479715       2.41042083
Ag      12.31306830      14.26479805      22.21571529
Ag      12.31306839      18.18061417       2.41276632
Ag      12.31306818      18.18061406      22.21336926
Ag      12.31306852      22.19044046       2.43569724
Ag      12.31306826      22.21337098       6.44552400
Ag      12.31306803      22.21571613      10.36134070
Ag      12.31306792      22.21571522      14.26479861
Ag      12.31306806      22.21336888      18.18061387
Ag      12.31306831      22.19043824      22.19043822
Ag      16.23490475       2.43687012       2.43687004
Ag      16.22038041       2.40729791       6.44699479
Ag      16.22090237       2.40565694      10.36101946
Ag      16.22090232       2.40565723      14.26511829
Ag      16.22038041       2.40729856      18.17914288
Ag      16.23490473       2.43687105      22.18926654
Ag      16.22038050       6.44699390       2.40729744
Ag      16.22038047       6.44699426      22.21883923
Ag      16.22090243      10.36101819       2.40565552
Ag      16.22090229      10.36101884      22.22048097
Ag      16.22090241      14.26511749       2.40565455
Ag      16.22090215      14.26511816      22.22048165
Ag      16.22038043      18.17914347       2.40729512
Ag      16.22038016      18.17914338      22.21884076
Ag      16.23490468      22.18927019       2.43686744
Ag      16.22038022      22.21884226       6.44699450
Ag      16.22090196      22.22048283      10.36102012
Ag      16.22090187      22.22048215      14.26511887
Ag      16.22038000      22.21884060      18.17914334
Ag      16.23490446      22.18926828      22.18926825
Ag      20.16966741       2.44781331       2.44781306
Ag      20.16201403       2.42913015       6.44743063
Ag      20.16685435       2.43282960      10.35779320
Ag      20.16685414       2.43282991      14.26834453
Ag      20.16201359       2.42913091      18.17870703
Ag      20.16966682       2.44781426      22.17832343
Ag      20.16201446       6.44743011       2.42912950
Ag      20.16201376       6.44743032      22.19700694
Ag      20.16685533      10.35779230       2.43282806
Ag      20.16685445      10.35779275      22.19330834
Ag      20.16685577      14.26834397       2.43282722
Ag      20.16685476      14.26834445      22.19330904
Ag      20.16201542      18.17870741       2.42912747
Ag      20.16201447      18.17870744      22.19700857
Ag      20.16966840      22.17832660       2.44781112
Ag      20.16201535      22.19701007       6.44743060
Ag      20.16685572      22.19331040      10.35779374
Ag      20.16685545      22.19330988      14.26834488
Ag      20.16201468      22.19700872      18.17870722
Ag      20.16966765      22.17832516      22.17832497
Ag       2.44781411       4.45647086       2.44781402
Ag       2.42913118       4.46412424       6.44743095
Ag       2.43283044       4.45928378      10.35779325
Ag       2.43283030       4.45928370      14.26834431
Ag       2.42913067       4.46412401      18.17870688
Ag       2.44781367       4.45647062      22.17832418
Ag       2.43687042       8.39123239       2.43687052
Ag       2.40729832       8.40575662       6.44699517
Ag       2.40565733       8.40523470      10.36101975
Ag       2.40565735       8.40523481      14.26511823
Ag       2.40729815       8.40575692      18.17914283
Ag       2.43687023       8.39123276      22.18926751
Ag       2.43569923      12.31306830       2.43569935
Ag       2.41276860      12.31306821       6.44552446
Ag       2.41042299      12.31306839      10.36134037
Ag       2.41042320      12.31306867      14.26479811
Ag       2.41276903      12.31306897      18.18061365
Ag       2.43569975      12.31306906      22.19043807
Ag       2.43686917      16.23490467       2.43686921
Ag       2.40729705      16.22038030       6.44699501