1099
Properties=species:S:1:pos:R:3 Geometry=T Step:=T 62=T pbc="F F F"
Ag       0.35171187       0.35171188       0.35171197
Ag       0.33443423       0.33443426       4.32084856
Ag       0.32245485       0.32245491       8.31565261
Ag       0.31776771       0.31776779      12.31306872
Ag       0.32245471       0.32245474      16.31048502
Ag       0.33443412       0.33443406      20.30528945
Ag       0.35171194       0.35171175      24.27442643
Ag       0.33443421       4.32084846       0.33443428
Ag       0.27650731       4.33356207       4.33356212
Ag       0.25008456       4.32279294       8.32716951
Ag       0.24206122       4.31476411      12.31306874
Ag       0.25008437       4.32279290      16.29896810
Ag       0.27650714       4.33356207      20.29257582
Ag       0.33443414       4.32084857      24.29170397
Ag       0.32245478       8.31565251       0.32245484
Ag       0.25008451       8.32716945       4.32279295
Ag       0.20628757       8.32642230       8.32642233
Ag       0.18620030       8.32121354      12.31306876
Ag       0.20628744       8.32642243      16.29971527
Ag       0.25008439       8.32716968      20.30334489
Ag       0.32245471       8.31565282      24.30368321
Ag       0.31776761      12.31306860       0.31776770
Ag       0.24206116      12.31306870       4.31476409
Ag       0.18620026      12.31306876       8.32121357
Ag       0.15973793      12.31306885      12.31306882
Ag       0.18620033      12.31306893      16.30492411
Ag       0.24206127      12.31306898      20.31137366
Ag       0.31776772      12.31306901      24.30837014
Ag       0.32245460      16.31048485       0.32245468
Ag       0.25008435      16.29896805       4.32279287
Ag       0.20628743      16.29971527       8.32642249
Ag       0.18620036      16.30492416      12.31306893
Ag       0.20628768      16.29971538      16.29971534
Ag       0.25008466      16.29896819      20.30334483
Ag       0.32245489      16.31048508      24.30368301
Ag       0.33443407      20.30528936       0.33443406
Ag       0.27650725      20.29257586       4.33356199
Ag       0.25008448      20.30334494       8.32716974
Ag       0.24206136      20.31137372      12.31306902
Ag       0.25008472      20.30334484      16.29896825
Ag       0.27650750      20.29257566      20.29257576
Ag       0.33443439      20.30528916      24.29170365
Ag       0.35171182      24.27442627       0.35171166
Ag       0.33443417      24.29170376       4.32084852
Ag       0.32245479      24.30368302       8.31565294
Ag       0.31776785      24.30836995      12.31306913
Ag       0.32245502      24.30368282      16.31048522
Ag       0.33443445      24.29170341      20.30528940
Ag       0.35171212      24.27442579      24.27442612
Ag       4.32084842       0.33443420       0.33443425
Ag       4.33356201       0.27650727       4.33356209
Ag       4.32279287       0.25008450       8.32716943
Ag       4.31476398       0.24206112      12.31306866
Ag       4.32279278       0.25008421      16.29896806
Ag       4.33356200       0.27650692      20.29257580
Ag       4.32084853       0.33443390      24.29170411
Ag       4.33356204       4.33356205       0.27650727
Ag       4.33356209       4.33356214      24.34963098
Ag       4.32279291       8.32716941       0.25008446
Ag       4.32279289       8.32716975      24.37605362
Ag       4.31476401      12.31306865       0.24206111
Ag       4.31476409      12.31306904      24.38407668
Ag       4.32279277      16.29896799       0.25008431
Ag       4.32279299      16.29896822      24.37605331
Ag       4.33356193      20.29257581       0.27650716
Ag       4.33356216      20.29257560      24.34963055
Ag       4.32084848      24.29170382       0.33443401
Ag       4.33356201      24.34963054       4.33356205
Ag       4.32279286      24.37605326       8.32716980
Ag       4.31476410      24.38407639      12.31306906
Ag       4.32279301      24.37605308      16.29896826
Ag       4.33356217      24.34963035      20.29257572
Ag       4.32084863      24.29170347      24.29170369
Ag       8.31565253       0.32245478       0.32245481
Ag       8.32716940       0.25008440       4.32279286
Ag       8.32642225       0.20628740       8.32642208
Ag       8.32121337       0.18619997      12.31306853
Ag       8.32642220       0.20628698      16.29971518
Ag       8.32716946       0.25008390      20.30334494
Ag       8.31565263       0.32245431      24.30368357
Ag       8.32716946       4.32279289       0.25008441
Ag       8.32716953       4.32279288      24.37605390
Ag       8.32642237       8.32642218       0.20628742
Ag       8.32642230       8.32642255      24.41985077
Ag       8.32121355      12.31306863       0.18620010
Ag       8.32121349      12.31306912      24.43993779
Ag       8.32642240      16.29971516       0.20628727
Ag       8.32642238      16.29971554      24.41985040
Ag       8.32716961      20.30334490       0.25008431
Ag       8.32716954      20.30334482      24.37605343
Ag       8.31565278      24.30368317       0.32245460
Ag       8.32716965      24.37605333       4.32279291
Ag       8.32642245      24.41985025       8.32642260
Ag       8.32121361      24.43993740      12.31306902
Ag       8.32642245      24.41985015      16.29971541
Ag       8.32716956      24.37605326      20.30334481
Ag       8.31565266      24.30368296      24.30368309
Ag      12.31306870       0.31776769       0.31776772
Ag      12.31306869       0.24206101       4.31476399
Ag      12.31306873       0.18620002       8.32121314
Ag      12.31306868       0.15973740      12.31306844
Ag      12.31306867       0.18619958      16.30492395
Ag      12.31306871       0.24206051      20.31137374
Ag      12.31306876       0.31776715      24.30837068
Ag      12.31306873       4.31476406       0.24206104
Ag      12.31306871       4.31476405      24.38407726
Ag      12.31306882       8.32121334       0.18620011
Ag      12.31306867       8.32121374      24.43993814
Ag      12.31306883      12.31306863       0.15973769
Ag      12.31306867      12.31306918      24.46640037
Ag      12.31306886      16.30492398       0.18620008
Ag      12.31306872      16.30492445      24.43993779
Ag      12.31306887      20.31137365       0.24206110
Ag      12.31306868      20.31137370      24.38407684
Ag      12.31306895      24.30837016       0.31776762
Ag      12.31306886      24.38407654       4.31476415
Ag      12.31306885      24.43993746       8.32121375
Ag      12.31306882      24.46639988      12.31306899
Ag      12.31306880      24.43993751      16.30492423
Ag      12.31306871      24.38407668      20.31137362
Ag      12.31306869      24.30837008      24.30837016
Ag      16.31048501       0.32245469       0.32245471
Ag      16.29896809       0.25008409       4.32279284
Ag      16.29971530       0.20628707       8.32642199
Ag      16.30492409       0.18619963      12.31306847
Ag      16.29971522       0.20628673      16.29971513
Ag      16.29896800       0.25008374      20.30334489
Ag      16.31048491       0.32245422      24.30368362
Ag      16.29896809       4.32279290       0.25008413
Ag      16.29896795       4.32279291      24.37605406
Ag      16.29971531       8.32642219       0.20628718
Ag      16.29971513       8.32642258      24.41985103
Ag      16.30492412      12.31306867       0.18619993
Ag      16.30492398      12.31306917      24.43993815
Ag      16.29971530      16.29971517       0.20628723
Ag      16.29971517      16.29971563      24.41985076
Ag      16.29896808      20.30334476       0.25008430
Ag      16.29896796      20.30334486      24.37605376
Ag      16.31048506      24.30368308       0.32245470
Ag      16.29896807      24.37605336       4.32279304
Ag      16.29971527      24.41985035       8.32642256
Ag      16.30492408      24.43993767      12.31306897
Ag      16.29971524      24.41985048      16.29971542
Ag      16.29896798      24.37605359      20.30334480
Ag      16.31048487      24.30368308      24.30368317
Ag      20.30528924       0.33443383       0.33443387
Ag      20.29257567       0.27650657       4.33356199
Ag      20.30334478       0.25008375       8.32716933
Ag      20.31137363       0.24206036      12.31306868
Ag      20.30334480       0.25008360      16.29896812
Ag      20.29257562       0.27650650      20.29257584
Ag      20.30528911       0.33443365      24.29170430
Ag      20.29257562       4.33356199       0.27650661
Ag      20.29257553       4.33356206      24.34963138
Ag      20.30334469       8.32716941       0.25008381
Ag      20.30334471       8.32716965      24.37605423
Ag      20.31137352      12.31306878       0.24206053
Ag      20.31137355      12.31306901      24.38407746
Ag      20.30334470      16.29896813       0.25008392
Ag      20.30334467      16.29896833      24.37605408
Ag      20.29257558      20.29257571       0.27650684
Ag      20.29257550      20.29257571      24.34963129
Ag      20.30528914      24.29170386       0.33443393
Ag      20.29257554      24.34963087       4.33356209
Ag      20.30334466      24.37605373       8.32716961
Ag      20.31137348      24.38407709      12.31306891
Ag      20.30334462      24.37605385      16.29896828
Ag      20.29257550      24.34963108      20.29257581
Ag      20.30528900      24.29170387      24.29170408
Ag      24.27442649       0.35171157       0.35171160
Ag      24.29170423       0.33443362       4.32084848
Ag      24.30368350       0.32245418       8.31565247
Ag      24.30837065       0.31776698      12.31306878
Ag      24.30368361       0.32245402      16.31048516
Ag      24.29170415       0.33443355      20.30528951
Ag      24.27442627       0.35171150      24.27442663
Ag      24.29170417       4.32084848       0.33443366
Ag      24.34963141       4.33356204       4.33356205
Ag      24.37605414       4.32279283       8.32716940
Ag      24.38407747       4.31476395      12.31306873
Ag      24.37605421       4.32279281      16.29896815
Ag      24.34963132       4.33356202      20.29257585
Ag      24.29170413       4.32084846      24.29170447
Ag      24.30368340       8.31565255       0.32245424
Ag      24.37605413       8.32716948       4.32279283
Ag      24.41985110       8.32642229       8.32642211
Ag      24.43993844       8.32121351      12.31306861
Ag      24.41985125       8.32642243      16.29971525
Ag      24.37605420       8.32716960      20.30334500
Ag      24.30368360       8.31565264      24.30368392
Ag      24.30837049      12.31306885       0.31776713
Ag      24.38407737      12.31306887       4.31476400
Ag      24.43993834      12.31306888       8.32121333
Ag      24.46640083      12.31306898      12.31306866
Ag      24.43993846      12.31306906      16.30492414
Ag      24.38407746      12.31306898      20.31137385
Ag      24.30837063      12.31306894      24.30837096
Ag      24.30368340      16.31048510       0.32245427
Ag      24.37605402      16.29896823       4.32279290
Ag      24.41985101      16.29971545       8.32642231
Ag      24.43993832      16.30492441      12.31306880
Ag      24.41985109      16.29971564      16.29971538
Ag      24.37605409      16.29896835      20.30334498
Ag      24.30368344      16.31048524      24.30368375
Ag      24.29170398      20.30528930       0.33443374
Ag      24.34963110      20.29257576       4.33356204
Ag      24.37605395      20.30334492       8.32716953
Ag      24.38407728      20.31137384      12.31306884
Ag      24.37605403      20.30334500      16.29896825
Ag      24.34963126      20.29257577      20.29257585
Ag      24.29170403      20.30528926      24.29170434
Ag      24.27442617      24.27442621       0.35171158
Ag      24.29170392      24.29170403       4.32084851
Ag      24.30368327      24.30368346       8.31565264
Ag      24.30837032      24.30837058      12.31306887
Ag      24.30368322      24.30368347      16.31048521
Ag      24.29170394      24.29170405      20.30528943
Ag      24.27442618      24.27442614      24.27442652
Ag       0.29097294       2.32471405       2.32471410
Ag       0.27576602       2.31402663       6.32582414
Ag       0.26382223       2.30237713      10.31690187
Ag       0.26382213       2.30237707      14.30923565
Ag       0.27576584       2.31402655      18.30031365
Ag       0.29097287       2.32471402      22.30142400
Ag       0.27576600       6.32582407       2.31402661
Ag       0.24419213       6.33327699       6.33327705
Ag       0.21609020       6.32190323      10.32149547
Ag       0.21609009       6.32190325      14.30464204
Ag       0.24419192       6.33327709      18.29286067
Ag       0.27576585       6.32582423      22.31211132
Ag       0.26382220      10.31690181       2.30237702
Ag       0.21609013      10.32149544       6.32190326
Ag       0.17493492      10.31956111      10.31956111
Ag       0.17493489      10.31956120      14.30657647
Ag       0.21609010      10.32149568      18.30423444
Ag       0.26382213      10.31690211      22.32376073
Ag       0.26382213      14.30923558       2.30237692
Ag       0.21609003      14.30464202       6.32190332
Ag       0.17493490      14.30657650      10.31956121
Ag       0.17493499      14.30657658      14.30657654
Ag       0.21609026      14.30464223      18.30423444
Ag       0.26382226      14.30923583      22.32376065
Ag       0.27576589      18.30031355       2.31402633
Ag       0.24419190      18.29286064       6.33327716
Ag       0.21609014      18.30423446      10.32149572
Ag       0.21609029      18.30423448      14.30464223
Ag       0.24419226      18.29286069      18.29286072
Ag       0.27576612      18.30031357      22.31211116
Ag       0.29097303      22.30142406       2.32471381
Ag       0.27576600      22.31211145       6.32582427
Ag       0.26382231      22.32376081      10.31690217
Ag       0.26382241      22.32376068      14.30923590
Ag       0.27576620      22.31211108      18.30031369
Ag       0.29097310      22.30142359      22.30142380
Ag      24.33516569       2.32471402       2.32471405
Ag      24.35037262       2.31402654       6.32582402
Ag      24.36231639       2.30237689      10.31690186
Ag      24.36231642       2.30237681      14.30923575
Ag      24.35037259       2.31402637      18.30031373
Ag      24.33516545       2.32471394      22.30142406
Ag      24.35037258       6.32582405       2.31402656
Ag      24.38194654       6.33327694       6.33327688
Ag      24.41004852       6.32190312      10.32149533
Ag      24.41004860       6.32190318      14.30464199
Ag      24.38194666       6.33327705      18.29286070
Ag      24.35037257       6.32582411      22.31211151
Ag      24.36231630      10.31690195       2.30237695
Ag      24.41004847      10.32149552       6.32190304
Ag      24.45120379      10.31956115      10.31956088
Ag      24.45120387      10.31956126      14.30657639
Ag      24.41004861      10.32149570      18.30423453
Ag      24.36231640      10.31690199      22.32376104
Ag      24.36231623      14.30923582       2.30237693
Ag      24.41004843      14.30464219       6.32190315
Ag      24.45120372      14.30657669      10.31956101
Ag      24.45120379      14.30657681      14.30657649
Ag      24.41004853      14.30464238      18.30423457
Ag      24.36231636      14.30923585      22.32376095
Ag      24.35037237      18.30031367       2.31402646
Ag      24.38194642      18.29286074       6.33327705
Ag      24.41004839      18.30423466      10.32149554
Ag      24.41004843      18.30423476      14.30464216
Ag      24.38194649      18.29286091      18.29286080
Ag      24.35037251      18.30031372      22.31211132
Ag      24.33516522      22.30142388       2.32471391
Ag      24.35037231      22.31211131       6.32582410
Ag      24.36231613      22.32376083      10.31690191
Ag      24.36231618      22.32376081      14.30923578
Ag      24.35037244      22.31211119      18.30031376
Ag      24.33516551      22.30142368      22.30142391
Ag       2.32471400       0.29097295       2.32471410
Ag       2.31402658       0.27576602       6.32582412
Ag       2.30237703       0.26382224      10.31690184
Ag       2.30237697       0.26382210      14.30923562
Ag       2.31402651       0.27576575      18.30031362
Ag       2.32471409       0.29097271      22.30142398
Ag       2.32471392      24.33516489       2.32471385
Ag       2.31402640      24.35037181       6.32582432
Ag       2.30237699      24.36231545      10.31690220
Ag       2.30237714      24.36231537      14.30923591
Ag       2.31402676      24.35037162      18.30031368
Ag       2.32471424      24.33516475      22.30142376
Ag       6.32582400       0.27576592       2.31402660
Ag       6.33327696       0.24419204       6.33327691
Ag       6.32190312       0.21609003      10.32149531
Ag       6.32190308       0.21608982      14.30464193
Ag       6.33327693       0.24419158      18.29286064
Ag       6.32582411       0.27576552      22.31211143
Ag       6.32582421      24.35037188       2.31402632
Ag       6.33327713      24.38194580       6.33327724
Ag       6.32190332      24.41004758      10.32149579
Ag       6.32190335      24.41004749      14.30464229
Ag       6.33327717      24.38194559      18.29286072
Ag       6.32582417      24.35037180      22.31211111
Ag      10.31690176       0.26382208       2.30237709
Ag      10.32149543       0.21609000       6.32190298
Ag      10.31956100       0.17493461      10.31956075
Ag      10.31956096       0.17493436      14.30657625
Ag      10.32149541       0.21608946      18.30423442
Ag      10.31690188       0.26382159      22.32376096
Ag      10.31690202      24.36231557       2.30237688
Ag      10.32149562      24.41004764       6.32190344
Ag      10.31956118      24.45120282      10.31956135
Ag      10.31956117      24.45120281      14.30657666
Ag      10.32149555      24.41004762      18.30423450
Ag      10.31690183      24.36231570      22.32376054
Ag      14.30923559       0.26382195       2.30237713
Ag      14.30464206       0.21608984       6.32190294
Ag      14.30657645       0.17493444      10.31956071
Ag      14.30657640       0.17493422      14.30657621
Ag      14.30464198       0.21608937      18.30423438
Ag      14.30923559       0.26382154      22.32376093
Ag      14.30923572      24.36231556       2.30237701
Ag      14.30464212      24.41004765       6.32190345
Ag      14.30657650      24.45120291      10.31956132
Ag      14.30657647      24.45120297      14.30657665
Ag      14.30464202      24.41004779      18.30423451
Ag      14.30923554      24.36231583      22.32376050
Ag      18.30031359       0.27576550       2.31402666
Ag      18.29286067       0.24419154       6.33327680
Ag      18.30423446       0.21608948      10.32149524
Ag      18.30423443       0.21608934      14.30464191
Ag      18.29286059       0.24419124      18.29286064
Ag      18.30031345       0.27576530      22.31211140
Ag      18.30031348      24.35037196       2.31402655
Ag      18.29286055      24.38194595       6.33327720
Ag      18.30423436      24.41004793      10.32149568
Ag      18.30423435      24.41004800      14.30464224
Ag      18.29286053      24.38194611      18.29286077
Ag      18.30031342      24.35037223      22.31211106
Ag      22.30142384       0.29097226       2.32471401
Ag      22.31211115       0.27576522       6.32582396
Ag      22.32376071       0.26382135      10.31690183
Ag      22.32376077       0.26382129      14.30923574
Ag      22.31211126       0.27576514      18.30031374
Ag      22.30142374       0.29097231      22.30142406
Ag      22.30142372      24.33516520       2.32471391
Ag      22.31211111      24.35037229       6.32582412
Ag      22.32376054      24.36231616      10.31690194
Ag      22.32376047      24.36231623      14.30923580
Ag      22.31211093      24.35037244      18.30031378
Ag      22.30142359      24.33516544      22.30142389
Ag       2.32471399       2.32471404       0.29097299
Ag       2.32471415       2.32471407      24.33516532
Ag       2.31402655       6.32582406       0.27576601
Ag       2.31402660       6.32582429      24.35037217
Ag       2.30237696      10.31690180       0.26382221
Ag       2.30237708      10.31690215      24.36231577
Ag       2.30237682      14.30923555       0.26382215
Ag       2.30237716      14.30923584      24.36231563
Ag       2.31402628      18.30031352       0.27576587
Ag       2.31402676      18.30031354      24.35037185
Ag       2.32471386      22.30142403       0.29097293
Ag       2.32471426      22.30142353      24.33516500
Ag       6.32582403       2.31402658       0.27576594
Ag       6.32582416       2.31402647      24.35037237
Ag       6.33327704       6.33327692       0.24419202
Ag       6.33327704       6.33327717      24.38194622
Ag       6.32190325      10.32149535       0.21609002
Ag       6.32190322      10.32149578      24.41004796
Ag       6.32190323      14.30464193       0.21608992
Ag       6.32190328      14.30464234      24.41004776
Ag       6.33327706      18.29286057       0.24419179
Ag       6.33327712      18.29286072      24.38194579
Ag       6.32582418      22.31211149       0.27576586
Ag       6.32582417      22.31211100      24.35037197
Ag      10.31690178       2.30237710       0.26382209
Ag      10.31690190       2.30237686      24.36231622
Ag      10.32149551       6.32190309       0.21609004
Ag      10.32149546       6.32190333      24.41004828
Ag      10.31956114      10.31956093       0.17493474
Ag      10.31956101      10.31956141      24.45120338
Ag      10.31956116      14.30657634       0.17493469
Ag      10.31956106      14.30657685      24.45120316
Ag      10.32149561      18.30423435       0.21608993
Ag      10.32149550      18.30423464      24.41004783
Ag      10.31690201      22.32376091       0.26382213
Ag      10.31690182      22.32376051      24.36231582
Ag      14.30923560       2.30237714       0.26382197
Ag      14.30923558       2.30237688      24.36231627
Ag      14.30464209       6.32190309       0.21608991
Ag      14.30464195       6.32190336      24.41004837
Ag      14.30657652      10.31956094       0.17493464
Ag      14.30657634      10.31956144      24.45120353
Ag      14.30657652      14.30657635       0.17493465
Ag      14.30657637      14.30657689      24.45120335
Ag      14.30464213      18.30423431       0.21608995
Ag      14.30464197      18.30423468      24.41004800
Ag      14.30923573      22.32376078       0.26382214
Ag      14.30923553      22.32376049      24.36231595
Ag      18.30031358       2.31402665       0.27576554
Ag      18.30031341       2.31402645      24.35037256
Ag      18.29286063       6.33327689       0.24419159
Ag      18.29286049       6.33327714      24.38194656
Ag      18.30423442      10.32149541       0.21608963
Ag      18.30423431      10.32149578      24.41004846
Ag      18.30423440      14.30464202       0.21608967
Ag      18.30423432      14.30464241      24.41004834
Ag      18.29286059      18.29286057       0.24419169
Ag      18.29286051      18.29286085      24.38194632
Ag      18.30031349      22.31211124       0.27576576
Ag      18.30031341      22.31211098      24.35037240
Ag      22.30142382       2.32471398       0.29097230
Ag      22.30142368       2.32471395      24.33516568
Ag      22.31211109       6.32582399       0.27576525
Ag      22.31211118       6.32582413      24.35037276
Ag      22.32376060      10.31690191       0.26382144
Ag      22.32376071      10.31690200      24.36231658
Ag      22.32376065      14.30923578       0.26382152
Ag      22.32376062      14.30923586      24.36231652
Ag      22.31211119      18.30031365       0.27576542
Ag      22.31211100      18.30031371      24.35037267
Ag      22.30142374      22.30142388       0.29097257
Ag      22.30142357      22.30142365      24.33516572
Ag       4.34430734       2.32100316       2.32100316
Ag       4.35166267       2.31129280       6.35488506
Ag       4.34271126       2.29799425      10.32601226
Ag       4.34271121       2.29799418      14.30012515
Ag       4.35166260       2.31129270      18.27125260
Ag       4.34430742       2.32100313      22.30513476
Ag       4.35166267       6.35488507       2.31129277
Ag       4.35166264       6.35488524      22.31484503
Ag       4.34271124      10.32601232       2.29799415
Ag       4.34271125      10.32601259      22.32814344
Ag       4.34271115      14.30012522       2.29799406
Ag       4.34271130      14.30012541      22.32814332
Ag       4.35166249      18.27125263       2.31129254
Ag       4.35166273      18.27125260      22.31484477
Ag       4.34430730      22.30513480       2.32100298
Ag       4.35166252      22.31484512       6.35488519
Ag       4.34271118      22.32814349      10.32601253
Ag       4.34271127      22.32814334      14.30012535
Ag       4.35166273      22.31484474      18.27125262
Ag       4.34430746      22.30513437      22.30513449
Ag       8.33003103       2.30963168       2.30963167
Ag       8.34807256       2.28898365       6.35614086
Ag       8.34464690       2.25860811      10.33364580
Ag       8.34464689       2.25860799      14.29249138
Ag       8.34807257       2.28898342      18.26999666
Ag       8.33003117       2.30963149      22.31650628
Ag       8.34807261       6.35614094       2.28898363
Ag       8.34807262       6.35614109      22.33715419
Ag       8.34464701      10.33364596       2.25860809
Ag       8.34464695      10.33364629      22.36752948
Ag       8.34464701      14.29249153       2.25860801
Ag       8.34464698      14.29249182      22.36752931
Ag       8.34807268      18.26999670       2.28898340
Ag       8.34807263      18.26999678      22.33715383
Ag       8.33003124      22.31650628       2.30963143
Ag       8.34807270      22.33715417       6.35614107
Ag       8.34464702      22.36752943      10.33364616
Ag       8.34464702      22.36752930      14.29249164
Ag       8.34807265      22.33715381      18.26999668
Ag       8.33003112      22.31650585      22.31650589
Ag      12.31306863       2.30523072       2.30523070
Ag      12.31306866       2.27808473       6.35006570
Ag      12.31306864       2.23937640      10.33200428
Ag      12.31306863       2.23937626      14.29413277
Ag      12.31306867       2.27808443      18.27607172
Ag      12.31306871       2.30523044      22.32090729
Ag      12.31306869       6.35006583       2.27808472
Ag      12.31306867       6.35006599      22.34805314
Ag      12.31306870      10.33200452       2.23937645
Ag      12.31306863      10.33200486      22.38676120
Ag      12.31306872      14.29413299       2.23937641
Ag      12.31306863      14.29413331      22.38676102
Ag      12.31306877      18.27607176       2.27808458
Ag      12.31306865      18.27607194      22.34805274
Ag      12.31306879      22.32090718       2.30523051
Ag      12.31306876      22.34805298       6.35006598
Ag      12.31306871      22.38676103      10.33200466
Ag      12.31306868      22.38676095      14.29413305
Ag      12.31306866      22.34805273      18.27607178
Ag      12.31306862      22.32090683      22.32090685
Ag      16.29610639       2.30963175       2.30963175
Ag      16.27806492       2.28898367       6.35614081
Ag      16.28149053       2.25860808      10.33364578
Ag      16.28149050       2.25860795      14.29249137
Ag      16.27806486       2.28898340      18.26999663
Ag      16.29610631       2.30963150      22.31650626
Ag      16.27806491       6.35614091       2.28898369
Ag      16.27806482       6.35614110      22.33715423
Ag      16.28149052      10.33364600       2.25860816
Ag      16.28149045      10.33364629      22.36752958
Ag      16.28149051      14.29249157       2.25860813
Ag      16.28149046      14.29249184      22.36752943
Ag      16.27806489      18.26999666       2.28898358
Ag      16.27806484      18.26999684      22.33715387
Ag      16.29610638      22.31650610       2.30963161
Ag      16.27806489      22.33715402       6.35614108
Ag      16.28149051      22.36752938      10.33364609
Ag      16.28149051      22.36752933      14.29249161
Ag      16.27806486      22.33715383      18.26999673
Ag      16.29610630      22.31650582      22.31650586
Ag      20.28183035       2.32100309       2.32100311
Ag      20.27447498       2.31129268       6.35488496
Ag      20.28342636       2.29799403      10.32601227
Ag      20.28342638       2.29799395      14.30012522
Ag      20.27447500       2.31129252      18.27125267
Ag      20.28183024       2.32100302      22.30513484
Ag      20.27447492       6.35488499       2.31129271
Ag      20.27447497       6.35488514      22.31484523
Ag      20.28342627      10.32601238       2.29799409
Ag      20.28342637      10.32601250      22.32814374
Ag      20.28342628      14.30012535       2.29799406
Ag      20.28342636      14.30012540      22.32814363
Ag      20.27447493      18.27125269       2.31129261
Ag      20.27447494      18.27125272      22.31484499
Ag      20.28183024      22.30513471       2.32100303
Ag      20.27447492      22.31484507       6.35488508
Ag      20.28342629      22.32814356      10.32601236
Ag      20.28342628      22.32814351      14.30012530
Ag      20.27447491      22.31484489      18.27125274
Ag      20.28183023      22.30513448      22.30513462
Ag       2.32100313       4.34430742       2.32100317
Ag       2.31129279       4.35166274       6.35488511
Ag       2.29799425       4.34271137      10.32601231
Ag       2.29799420       4.34271134      14.30012518
Ag       2.31129275       4.35166270      18.27125261
Ag       2.32100324       4.34430745      22.30513472
Ag       2.30963164       8.33003114       2.30963165
Ag       2.28898366       8.34807264       6.35614102
Ag       2.25860822       8.34464707      10.33364599
Ag       2.25860819       8.34464713      14.29249149
Ag       2.28898365       8.34807282      18.26999664
Ag       2.30963172       8.33003136      22.31650609
Ag       2.30523054      12.31306875       2.30523056
Ag       2.27808464      12.31306879       6.35006594
Ag       2.23937652      12.31306886      10.33200461
Ag       2.23937658      12.31306894      14.29413298
Ag       2.27808482      12.31306899      18.27607170
Ag       2.30523076      12.31306899      22.32090698
Ag       2.30963146      16.29610643       2.30963148
Ag       2.28898348      16.27806498       6.35614106