365
Properties=species:S:1:pos:R:3 Geometry=T Step:=T 50=T pbc="F F F"
Pt       0.74508061       0.74508070       0.74508054
Pt       0.66832654       0.66832679       4.37505344
Pt       0.66419621       0.66419653       8.20871264
Pt       0.66832700       0.66832723      12.04237185
Pt       0.74508111       0.74508126      15.67234412
Pt       0.66832697       4.37505376       0.66832685
Pt       0.53447281       4.40909561       4.40909533
Pt       0.50832642       4.37909301       8.20871270
Pt       0.53447340       4.40909560      12.00833002
Pt       0.66832776       4.37505383      15.74909745
Pt       0.66419664       8.20871262       0.66419649
Pt       0.50832640       8.20871252       4.37909277
Pt       0.47628352       8.20871254       8.20871272
Pt       0.50832713       8.20871257      12.03833259
Pt       0.66419759       8.20871269      15.75322763
Pt       0.66832666      12.04237145       0.66832652
Pt       0.53447235      12.00832942       4.40909536
Pt       0.50832603      12.03833197       8.20871273
Pt       0.53447309      12.00832934      12.00832998
Pt       0.66832757      12.04237135      15.74909763
Pt       0.74508061      15.67234465       0.74508041
Pt       0.66832629      15.74909878       4.37505355
Pt       0.66419599      15.75322903       8.20871268
Pt       0.66832673      15.74909826      12.04237173
Pt       0.74508109      15.67234397      15.67234411
Pt       4.37505343       0.66832661       0.66832640
Pt       4.40909507       0.53447228       4.40909527
Pt       4.37909243       0.50832586       8.20871269
Pt       4.40909511       0.53447285      12.00833009
Pt       4.37505335       0.66832739      15.74909802
Pt       4.40909529       4.40909568       0.53447262
Pt       4.38941570       4.38941634       4.38941597
Pt       4.37672900       4.37672964       8.20871272
Pt       4.38941569       4.38941622      12.02800949
Pt       4.40909524       4.40909566      15.88295154
Pt       4.37909283       8.20871256       0.50832626
Pt       4.37672911       8.20871242       4.37672932
Pt       4.35841957       8.20871240       8.20871270
Pt       4.37672908       8.20871242      12.04069614
Pt       4.37909273       8.20871257      15.90909780
Pt       4.40909542      12.00832939       0.53447228
Pt       4.38941580      12.02800851       4.38941598
Pt       4.37672908      12.04069510       8.20871267
Pt       4.38941574      12.02800846      12.02800946
Pt       4.40909531      12.00832927      15.88295189
Pt       4.37505368      15.74909873       0.66832627
Pt       4.40909530      15.88295326       4.40909529
Pt       4.37909264      15.90909986       8.20871261
Pt       4.40909524      15.88295288      12.00832998
Pt       4.37505344      15.74909813      15.74909834
Pt       8.20871251       0.66419601       0.66419568
Pt       8.20871246       0.50832528       4.37909256
Pt       8.20871247       0.47628231       8.20871271
Pt       8.20871243       0.50832594      12.03833282
Pt       8.20871233       0.66419676      15.75322874
Pt       8.20871254       4.37909316       0.50832577
Pt       8.20871245       4.37672973       4.37672922
Pt       8.20871251       4.35842018       8.20871276
Pt       8.20871252       4.37672959      12.04069626
Pt       8.20871239       4.37909306      15.90909841
Pt       8.20871262       8.20871261       0.47628297
Pt       8.20871254       8.20871247       4.35841972
Pt       8.20871260       8.20871243       8.20871272
Pt       8.20871262       8.20871243      12.05900572
Pt       8.20871245       8.20871256      15.94114125
Pt       8.20871261      12.03833199       0.50832565
Pt       8.20871258      12.04069523       4.37672922
Pt       8.20871266      12.05900466       8.20871267
Pt       8.20871265      12.04069516      12.04069622
Pt       8.20871246      12.03833193      15.90909873
Pt       8.20871255      15.75322911       0.66419587
Pt       8.20871258      15.90909997       4.37909261
Pt       8.20871260      15.94114324       8.20871255
Pt       8.20871255      15.90909973      12.03833266
Pt       8.20871234      15.75322874      15.75322896
Pt      12.04237160       0.66832639       0.66832611
Pt      12.00832990       0.53447178       4.40909510
Pt      12.03833250       0.50832525       8.20871265
Pt      12.00832977       0.53447224      12.00833023
Pt      12.04237141       0.66832687      15.74909855
Pt      12.00832983       4.40909566       0.53447233
Pt      12.02800927       4.38941632       4.38941582
Pt      12.04069590       4.37672965       8.20871275
Pt      12.02800912       4.38941623      12.02800960
Pt      12.00832960       4.40909554      15.88295221
Pt      12.03833236       8.20871262       0.50832607
Pt      12.04069592       8.20871251       4.37672918
Pt      12.05900538       8.20871250       8.20871273
Pt      12.04069577       8.20871252      12.04069624
Pt      12.03833213       8.20871261      15.90909846
Pt      12.00832974      12.00832953       0.53447218
Pt      12.02800921      12.02800871       4.38941585
Pt      12.04069588      12.04069530       8.20871271
Pt      12.02800914      12.02800866      12.02800957
Pt      12.00832959      12.00832950      15.88295238
Pt      12.04237139      15.74909874       0.66832625
Pt      12.00832976      15.88295339       4.40909516
Pt      12.03833238      15.90910004       8.20871256
Pt      12.00832973      15.88295312      12.00833008
Pt      12.04237133      15.74909844      15.74909862
Pt      15.67234444       0.74508049       0.74508035
Pt      15.74909883       0.66832631       4.37505322
Pt      15.75322938       0.66419580       8.20871244
Pt      15.74909867       0.66832634      12.04237182
Pt      15.67234446       0.74508044      15.67234479
Pt      15.74909813       4.37505375       0.66832671
Pt      15.88295271       4.40909554       4.40909503
Pt      15.90909944       4.37909293       8.20871249
Pt      15.88295263       4.40909541      12.00833007
Pt      15.74909816       4.37505360      15.74909841
Pt      15.75322838       8.20871263       0.66419647
Pt      15.90909905       8.20871258       4.37909247
Pt      15.94114227       8.20871259       8.20871247
Pt      15.90909895       8.20871262      12.03833261
Pt      15.75322844       8.20871268      15.75322866
Pt      15.74909830      12.04237151       0.66832651
Pt      15.88295294      12.00832960       4.40909507
Pt      15.90909957      12.03833220       8.20871251
Pt      15.88295271      12.00832965      12.00833003
Pt      15.74909821      12.04237161      15.74909847
Pt      15.67234433      15.67234468       0.74508038
Pt      15.74909878      15.74909895       4.37505332
Pt      15.75322928      15.75322942       8.20871245
Pt      15.74909865      15.74909885      12.04237170
Pt      15.67234438      15.67234468      15.67234466
Pt       0.56261342       2.53986767       2.53986750
Pt       0.53577852       2.49652863       6.29799419
Pt       0.53577878       2.49652863      10.11943117
Pt       0.56261407       2.53986774      13.87755772
Pt       0.53577874       6.29799433       2.49652856
Pt       0.48663572       6.30867684       6.30867670
Pt       0.48663603       6.30867685      10.10874871
Pt       0.53577959       6.29799442      13.92089657
Pt       0.53577850      10.11943080       2.49652848
Pt       0.48663544      10.10874817       6.30867671
Pt       0.48663583      10.10874818      10.10874871
Pt       0.53577948      10.11943077      13.92089660
Pt       0.56261317      13.87755748       2.53986753
Pt       0.53577818      13.92089652       6.29799423
Pt       0.53577849      13.92089642      10.11943116
Pt       0.56261389      13.87755724      13.87755760
Pt       4.41559232       2.49980172       2.49980164
Pt       4.39929768       2.44241666       6.31007435
Pt       4.39929769       2.44241666      10.10735107
Pt       4.41559227       2.49980178      13.91762356
Pt       4.39929788       6.31007450       2.44241680
Pt       4.36936081       6.30060001       6.30059982
Pt       4.36936084       6.30059997      10.11682562
Pt       4.39929783       6.31007448      13.97500839
Pt       4.39929791      10.10735049       2.44241675
Pt       4.36936085      10.11682478       6.30059979
Pt       4.36936086      10.11682478      10.11682562
Pt       4.39929785      10.10735045      13.97500844
Pt       4.41559243      13.91762330       2.49980166
Pt       4.39929780      13.97500833       6.31007430
Pt       4.39929779      13.97500827      10.10735100
Pt       4.41559235      13.91762313      13.91762354
Pt       8.20871248       2.48203143       2.48203124
Pt       8.20871246       2.41734272       6.30173406
Pt       8.20871248       2.41734272      10.11569139
Pt       8.20871242       2.48203148      13.93539394
Pt       8.20871252       6.30173430       2.41734279
Pt       8.20871252       6.29233930       6.29233899
Pt       8.20871258       6.29233924      10.12508650
Pt       8.20871249       6.30173423      14.00008239
Pt       8.20871258      10.11569077       2.41734280
Pt       8.20871262      10.12508559       6.29233895
Pt       8.20871268      10.12508556      10.12508648
Pt       8.20871256      10.11569073      14.00008244
Pt       8.20871254      13.93539356       2.48203137
Pt       8.20871259      14.00008227       6.30173400
Pt       8.20871262      14.00008223      10.11569128
Pt       8.20871249      13.93539348      13.93539391
Pt      12.00183268       2.49980163       2.49980145
Pt      12.01812725       2.44241655       6.31007424
Pt      12.01812719       2.44241655      10.10735115
Pt      12.00183255       2.49980161      13.91762377
Pt      12.01812718       6.31007449       2.44241664
Pt      12.04806414       6.30060004       6.30059973
Pt      12.04806405       6.30060002      10.11682573
Pt      12.01812700       6.31007447      13.97500860
Pt      12.01812717      10.10735062       2.44241663
Pt      12.04806414      10.11682497       6.30059972
Pt      12.04806407      10.11682495      10.11682572
Pt      12.01812701      10.10735060      13.97500863
Pt      12.00183258      13.91762342       2.49980155
Pt      12.01812718      13.97500848       6.31007422
Pt      12.01812715      13.97500844      10.10735108
Pt      12.00183252      13.91762335      13.91762371
Pt      15.85481189       2.53986759       2.53986731
Pt      15.88164714       2.49652847       6.29799391
Pt      15.88164707       2.49652838      10.11943108
Pt      15.85481180       2.53986739      13.87755790
Pt      15.88164658       6.29799431       2.49652840
Pt      15.93078999       6.30867680       6.30867635
Pt      15.93078994       6.30867678      10.10874863
Pt      15.88164653       6.29799429      13.92089681
Pt      15.88164673      10.11943089       2.49652837
Pt      15.93079012      10.10874836       6.30867638
Pt      15.93079001      10.10874839      10.10874862
Pt      15.88164656      10.11943096      13.92089681
Pt      15.85481200      13.87755755       2.53986738
Pt      15.88164721      13.92089666       6.29799395
Pt      15.88164709      13.92089668      10.11943106
Pt      15.85481181      13.87755762      13.87755777
Pt       2.53986732       0.56261332       2.53986747
Pt       2.49652808       0.53577844       6.29799418
Pt       2.49652813       0.53577870      10.11943117
Pt       2.53986735       0.56261397      13.87755777
Pt       2.49980157       4.41559272       2.49980176
Pt       2.44241637       4.39929828       6.31007438
Pt       2.44241639       4.39929824      10.10735106
Pt       2.49980158       4.41559272      13.91762345
Pt       2.48203142       8.20871254       2.48203160
Pt       2.41734258       8.20871248       6.30173414
Pt       2.41734261       8.20871248      10.11569131
Pt       2.48203145       8.20871256      13.93539359
Pt       2.49980152      12.00183233       2.49980171
Pt       2.44241627      12.01812664       6.31007437
Pt       2.44241632      12.01812660      10.10735103
Pt       2.49980158      12.00183221      13.91762346
Pt       2.53986748      15.85481206       2.53986753
Pt       2.49652819      15.88164710       6.29799417
Pt       2.49652821      15.88164686      10.11943114
Pt       2.53986746      15.85481144      13.87755762
Pt       6.29799398       0.53577801       2.49652822
Pt       6.30867640       0.48663470       6.30867660
Pt       6.30867644       0.48663501      10.10874880
Pt       6.29799396       0.53577875      13.92089694
Pt       6.31007415       4.39929832       2.44241662
Pt       6.30059957       4.36936147       6.30059979
Pt       6.30059964       4.36936139      10.11682568
Pt       6.31007414       4.39929824      13.97500855
Pt       6.30173400       8.20871250       2.41734288
Pt       6.29233890       8.20871239       6.29233897
Pt       6.29233896       8.20871237      10.12508644
Pt       6.30173396       8.20871248      14.00008231
Pt       6.31007426      12.01812668       2.44241661
Pt       6.30059971      12.04806335       6.30059971
Pt       6.30059975      12.04806331      10.11682564
Pt       6.31007421      12.01812658      13.97500863
Pt       6.29799414      15.88164727       2.49652834
Pt       6.30867660      15.93079085       6.30867649
Pt       6.30867659      15.93079074      10.10874868
Pt       6.29799400      15.88164685      13.92089689
Pt      10.11943098       0.53577780       2.49652811
Pt      10.10874853       0.48663438       6.30867653
Pt      10.10874848       0.48663471      10.10874887
Pt      10.11943079       0.53577846      13.92089706
Pt      10.10735085       4.39929831       2.44241651
Pt      10.11682539       4.36936149       6.30059976
Pt      10.11682536       4.36936141      10.11682577
Pt      10.10735073       4.39929822      13.97500867
Pt      10.11569113       8.20871255       2.41734281
Pt      10.12508621       8.20871248       6.29233896
Pt      10.12508619       8.20871246      10.12508653
Pt      10.11569101       8.20871254      14.00008243
Pt      10.10735087      12.01812677       2.44241656
Pt      10.11682546      12.04806347       6.30059971
Pt      10.11682548      12.04806343      10.11682571
Pt      10.10735080      12.01812669      13.97500872
Pt      10.11943093      15.88164732       2.49652832
Pt      10.10874856      15.93079090       6.30867645
Pt      10.10874855      15.93079077      10.10874871
Pt      10.11943085      15.88164697      13.92089695
Pt      13.87755764       0.56261289       2.53986727
Pt      13.92089693       0.53577775       6.29799398
Pt      13.92089685       0.53577787      10.11943116
Pt      13.87755757       0.56261313      13.87755797
Pt      13.91762345       4.41559266       2.49980155
Pt      13.97500863       4.39929823       6.31007419
Pt      13.97500857       4.39929817      10.10735108
Pt      13.91762338       4.41559257      13.91762368
Pt      13.93539358       8.20871258       2.48203144
Pt      14.00008238       8.20871255       6.30173394
Pt      14.00008232       8.20871256      10.11569130
Pt      13.93539350       8.20871260      13.93539380
Pt      13.91762344      12.00183247       2.49980156
Pt      13.97500862      12.01812684       6.31007420
Pt      13.97500856      12.01812683      10.10735105
Pt      13.91762335      12.00183247      13.91762366
Pt      13.87755744      15.85481229       2.53986740
Pt      13.92089673      15.88164745       6.29799399
Pt      13.92089670      15.88164735      10.11943109
Pt      13.87755745      15.85481206      13.87755780
Pt       2.53986748       2.53986770       0.56261336
Pt       2.49980140       2.49980171       4.41559252
Pt       2.48203105       2.48203143       8.20871269
Pt       2.49980142       2.49980174      12.00183284
Pt       2.53986748       2.53986782      15.85481100
Pt       2.49652861       6.29799436       0.53577867
Pt       2.44241653       6.31007448       4.39929807
Pt       2.41734255       6.30173424       8.20871272
Pt       2.44241657       6.31007447      12.01812734
Pt       2.49652868       6.29799444      15.88164544
Pt       2.49652857      10.11943081       0.53577845
Pt       2.44241645      10.10735048       4.39929806
Pt       2.41734250      10.11569068       8.20871271
Pt       2.44241653      10.10735046      12.01812734
Pt       2.49652867      10.11943076      15.88164557
Pt       2.53986759      13.87755740       0.56261313
Pt       2.49980139      13.91762334       4.41559256
Pt       2.48203107      13.93539357       8.20871267
Pt       2.49980145      13.91762319      12.00183276
Pt       2.53986757      13.87755715      15.85481120
Pt       6.29799405       2.49652869       0.53577811
Pt       6.31007408       2.44241665       4.39929793
Pt       6.30173386       2.41734273       8.20871271
Pt       6.31007411       2.44241668      12.01812747
Pt       6.29799397       2.49652880      15.88164619
Pt       6.30867664       6.30867692       0.48663535
Pt       6.30059962       6.30060004       4.36936103
Pt       6.29233889       6.29233924       8.20871272
Pt       6.30059971       6.30059996      12.04806440
Pt       6.30867656       6.30867688      15.93078881
Pt       6.30867673      10.10874823       0.48663517
Pt       6.30059971      10.11682482       4.36936101
Pt       6.29233897      10.12508551       8.20871268
Pt       6.30059977      10.11682479      12.04806442
Pt       6.30867662      10.10874815      15.93078902
Pt       6.29799418      13.92089639       0.53577799
Pt       6.31007422      13.97500834       4.39929794
Pt       6.30173401      14.00008223       8.20871261
Pt       6.31007422      13.97500823      12.01812740
Pt       6.29799400      13.92089624      15.88164654
Pt      10.11943100       2.49652867       0.53577792
Pt      10.10735084       2.44241660       4.39929784
Pt      10.11569107       2.41734268       8.20871273
Pt      10.10735077       2.44241663      12.01812756
Pt      10.11943074       2.49652872      15.88164650
Pt      10.10874855       6.30867693       0.48663519
Pt      10.11682539       6.30060006       4.36936096
Pt      10.12508616       6.29233930       8.20871277
Pt      10.11682533       6.30060001      12.04806450
Pt      10.10874828       6.30867687      15.93078911
Pt      10.10874855      10.10874831       0.48663509
Pt      10.11682543      10.11682494       4.36936096
Pt      10.12508623      10.12508563       8.20871273
Pt      10.11682541      10.11682489      12.04806451
Pt      10.10874830      10.10874824      15.93078924
Pt      10.11943093      13.92089642       0.53577794
Pt      10.10735086      13.97500841       4.39929789
Pt      10.11569114      14.00008232       8.20871264
Pt      10.10735086      13.97500832      12.01812746
Pt      10.11943077      13.92089634      15.88164671
Pt      13.87755753       2.53986765       0.56261304
Pt      13.91762360       2.49980158       4.41559231
Pt      13.93539391       2.48203128       8.20871260
Pt      13.91762352       2.49980152      12.00183294
Pt      13.87755747       2.53986752      15.85481183
Pt      13.92089644       6.29799435       0.53577840
Pt      13.97500848       6.31007446       4.39929784
Pt      14.00008241       6.30173425       8.20871262
Pt      13.97500837       6.31007445      12.01812743
Pt      13.92089636       6.29799433      15.88164645
Pt      13.92089645      10.11943088       0.53577827
Pt      13.97500850      10.10735063       4.39929785
Pt      14.00008241      10.11569084       8.20871262
Pt      13.97500838      10.10735064      12.01812742
Pt      13.92089636      10.11943091      15.88164650
Pt      13.87755738      13.87755747       0.56261294
Pt      13.91762352      13.91762349       4.41559237
Pt      13.93539381      13.93539375       8.20871259
Pt      13.91762345      13.91762345      12.00183285
Pt      13.87755738      13.87755751      15.85481188
