1099
Properties=species:S:1:pos:R:3 Geometry=T Step:=T 54=T pbc="F F F"
Ag     -12.06194560     -12.06194575     -12.06194492
Ag     -12.12540510     -10.09000230     -10.09000167
Ag     -10.09000220     -12.12540526     -10.09000163
Ag     -10.09000238     -10.09000237     -12.12540489
Ag     -12.07856063     -12.07856078      -8.08500966
Ag     -12.14328113     -10.10609212      -6.06579688
Ag     -10.10609185     -12.14328128      -6.06579681
Ag     -10.10169813     -10.10169833      -8.06869904
Ag     -12.08919899     -12.08919921      -4.05108743
Ag     -12.15182822     -10.11726261      -2.02461537
Ag     -10.11726227     -12.15182832      -2.02461527
Ag     -10.11937193     -10.11937221      -4.04390748
Ag     -12.09233094     -12.09233126       0.00000042
Ag     -12.15182821     -10.11726259       2.02461598
Ag     -10.11726219     -12.15182825       2.02461606
Ag     -10.12448587     -10.12448610       0.00000036
Ag     -12.08919895     -12.08919935       4.05108797
Ag     -12.14328100     -10.10609209       6.06579719
Ag     -10.10609160     -12.14328108       6.06579718
Ag     -10.11937184     -10.11937204       4.04390800
Ag     -12.07856029     -12.07856083       8.08500998
Ag     -12.12540463     -10.09000225      10.09000183
Ag     -10.09000152     -12.12540493      10.09000171
Ag     -10.10169778     -10.10169811       8.06869912
Ag     -12.06194493     -12.06194570      12.06194516
Ag     -10.09000155     -10.09000223      12.12540485
Ag     -12.07856107      -8.08501057     -12.07856054
Ag     -12.14328155      -6.06579751     -10.10609193
Ag     -10.10169832      -8.06869953     -10.10169810
Ag     -10.10609243      -6.06579749     -12.14328149
Ag     -12.14369386      -8.07875324      -8.07875276
Ag     -12.17137400      -6.06535256      -6.06535215
Ag     -10.12778762      -8.07762962      -6.05318786
Ag     -10.12778781      -6.05318824      -8.07762943
Ag     -12.16459319      -8.09321920      -4.04506576
Ag     -12.18603848      -6.07527327      -2.02295667
Ag     -10.14234568      -8.09066768      -2.02220336
Ag     -10.15416246      -6.06155568      -4.03986899
Ag     -12.16936076      -8.10022736       0.00000014
Ag     -12.18603866      -6.07527318       2.02295662
Ag     -10.14234569      -8.09066755       2.02220377
Ag     -10.16240171      -6.06778996       0.00000007
Ag     -12.16459330      -8.09321905       4.04506600
Ag     -12.17137425      -6.06535235       6.06535224
Ag     -10.12778752      -8.07762936       6.05318804
Ag     -10.15416251      -6.06155547       4.03986912
Ag     -12.14369373      -8.07875317       8.07875294
Ag     -12.14328152      -6.06579775      10.10609222
Ag     -10.10169786      -8.06869945      10.10169812
Ag     -10.12778764      -6.05318819       8.07762950
Ag     -12.07856071      -8.08501074      12.07856102
Ag     -10.10609178      -6.06579771      12.14328178
Ag     -12.08919981      -4.05108805     -12.08919936
Ag     -12.15182884      -2.02461563     -10.11726263
Ag     -10.11937248      -4.04390786     -10.11937231
Ag     -10.11726314      -2.02461555     -12.15182879
Ag     -12.16459356      -4.04506616      -8.09321896
Ag     -12.18603870      -2.02295676      -6.07527298
Ag     -10.15416268      -4.03986922      -6.06155544
Ag     -10.14234623      -2.02220347      -8.09066765
Ag     -12.19284976      -4.04690719      -4.04690694
Ag     -12.20617129      -2.02488156      -2.02488154
Ag     -10.17367614      -4.04494761      -2.02131158
Ag     -10.17367632      -2.02131157      -4.04494747
Ag     -12.20106641      -4.05138409      -0.00000010
Ag     -12.20617159      -2.02488156       2.02488135
Ag     -10.17367619      -4.04494757       2.02131160
Ag     -10.18317477      -2.02338832      -0.00000001
Ag     -12.19285015      -4.04690706       4.04690686
Ag     -12.18603921      -2.02295688       6.07527313
Ag     -10.15416265      -4.03986918       6.06155554
Ag     -10.17367635      -2.02131163       4.04494752
Ag     -12.16459385      -4.04506631       8.09321924
Ag     -12.15182924      -2.02461634      10.11726311
Ag     -10.11937213      -4.04390828      10.11937242
Ag     -10.14234610      -2.02220387       8.09066786
Ag     -12.08919974      -4.05108867      12.08920020
Ag     -10.11726257      -2.02461631      12.15182954
Ag     -12.09233179       0.00000039     -12.09233143
Ag     -12.15182862       2.02461625     -10.11726257
Ag     -10.12448658       0.00000038     -10.12448628
Ag     -10.11726301       2.02461631     -12.15182857
Ag     -12.16936109       0.00000022      -8.10022719
Ag     -12.18603857       2.02295696      -6.07527287
Ag     -10.16240216       0.00000022      -6.06778978
Ag     -10.14234622       2.02220401      -8.09066750
Ag     -12.20106633       0.00000010      -4.05138388
Ag     -12.20617122       2.02488175      -2.02488154
Ag     -10.18317485       0.00000022      -2.02338836
Ag     -10.17367642       2.02131194      -4.04494741
Ag     -12.21019257       0.00000008      -0.00000015
Ag     -12.20617167       2.02488163       2.02488123
Ag     -10.18317491       0.00000014       2.02338831
Ag     -10.18317491       2.02338868      -0.00000010
Ag     -12.20106693      -0.00000006       4.05138382
Ag     -12.18603949       2.02295657       6.07527307
Ag     -10.16240217      -0.00000009       6.06778995
Ag     -10.17367655       2.02131170       4.04494739
Ag     -12.16936181      -0.00000033       8.10022761
Ag     -12.15182958       2.02461547      10.11726326
Ag     -10.12448638      -0.00000036      10.12448662
Ag     -10.14234634       2.02220344       8.09066788
Ag     -12.09233210      -0.00000060      12.09233269
Ag     -10.11726273       2.02461543      12.15182989
Ag     -12.08919946       4.05108848     -12.08919931
Ag     -12.14328100       6.06579769     -10.10609191
Ag     -10.11937234       4.04390833     -10.11937207
Ag     -10.10609207       6.06579769     -12.14328105
Ag     -12.16459324       4.04506641      -8.09321882
Ag     -12.17137368       6.06535262      -6.06535198
Ag     -10.15416279       4.03986948      -6.06155523
Ag     -10.12778776       6.05318840      -8.07762919
Ag     -12.19284957       4.04690729      -4.04690682
Ag     -12.18603825       6.07527348      -2.02295680
Ag     -10.17367633       4.04494792      -2.02131162
Ag     -10.15416264       6.06155586      -4.03986896
Ag     -12.20106636       4.05138428      -0.00000025
Ag     -12.18603885       6.07527344       2.02295625
Ag     -10.17367649       4.04494781       2.02131135
Ag     -10.16240200       6.06779027      -0.00000024
Ag     -12.19285051       4.04690707       4.04690664
Ag     -12.17137501       6.06535244       6.06535211
Ag     -10.15416308       4.03986911       6.06155541
Ag     -10.15416300       6.06155573       4.03986876
Ag     -12.16459454       4.04506591       8.09321933
Ag     -12.14328248       6.06579750      10.10609270
Ag     -10.11937250       4.04390781      10.11937268
Ag     -10.12778824       6.05318820       8.07762964
Ag     -12.08920028       4.05108785      12.08920084
Ag     -10.10609222       6.06579738      12.14328287
Ag     -12.07856036       8.08501061     -12.07856051
Ag     -12.12540423      10.09000227     -10.09000182
Ag     -10.10169794       8.06869950     -10.10169793
Ag     -10.09000157      10.09000222     -12.12540449
Ag     -12.14369324       8.07875331      -8.07875280
Ag     -12.14328058      10.10609234      -6.06579726
Ag     -10.12778760       8.07762967      -6.05318787
Ag     -10.10169775      10.10169829      -8.06869908
Ag     -12.16459281       8.09321943      -4.04506599
Ag     -12.15182796      10.11726309      -2.02461613
Ag     -10.14234586       8.09066794      -2.02220376
Ag     -10.11937182      10.11937237      -4.04390795
Ag     -12.16936072       8.10022777      -0.00000041
Ag     -12.15182850      10.11726326       2.02461526
Ag     -10.14234610       8.09066797       2.02220321
Ag     -10.12448600      10.12448655      -0.00000038
Ag     -12.16459393       8.09321952       4.04506558
Ag     -12.14328196      10.10609280       6.06579714
Ag     -10.12778816       8.07762979       6.05318792
Ag     -10.11937224      10.11937269       4.04390753
Ag     -12.14369487       8.07875350       8.07875325
Ag     -12.12540581      10.09000295      10.09000271
Ag     -10.10169847       8.06869973      10.10169875
Ag     -10.10169839      10.10169888       8.06869947
Ag     -12.07856167       8.08501074      12.07856231
Ag     -10.09000202      10.09000285      12.12540642
Ag     -12.06194466      12.06194554     -12.06194508
Ag     -10.09000138      12.12540477     -10.09000174
Ag     -12.07855997      12.07856081      -8.08501012
Ag     -10.10609142      12.14328106      -6.06579721
Ag     -12.08919855      12.08919952      -4.05108821
Ag     -10.11726203      12.15182845      -2.02461610
Ag     -12.09233086      12.09233194      -0.00000057
Ag     -10.11726224      12.15182895       2.02461525
Ag     -12.08919941      12.08920036       4.05108752
Ag     -10.10609196      12.14328238       6.06579704
Ag     -12.07856131      12.07856218       8.08501039
Ag     -10.09000198      12.12540641      10.09000259
Ag     -12.06194590      12.06194695      12.06194678
Ag      -8.08501087     -12.07856129     -12.07856074
Ag      -8.06869957     -10.10169852     -10.10169817
Ag      -6.06579782     -12.14328182     -10.10609205
Ag      -6.06579792     -10.10609259     -12.14328174
Ag      -8.07875308     -12.14369402      -8.07875266
Ag      -8.07762935     -10.12778791      -6.05318778
Ag      -6.06535231     -12.17137399      -6.06535194
Ag      -6.05318816     -10.12778813      -8.07762948
Ag      -8.09321886     -12.16459320      -4.04506554
Ag      -8.09066743     -10.14234590      -2.02220319
Ag      -6.07527302     -12.18603818      -2.02295620
Ag      -6.06155541     -10.15416274      -4.03986874
Ag      -8.10022702     -12.16936055       0.00000044
Ag      -8.09066736     -10.14234573       2.02220391
Ag      -6.07527296     -12.18603803       2.02295699
Ag      -6.06778978     -10.16240176       0.00000039
Ag      -8.09321870     -12.16459295       4.04506612
Ag      -8.07762914     -10.12778753       6.05318804
Ag      -6.06535207     -12.17137358       6.06535217
Ag      -6.06155534     -10.15416234       4.03986924
Ag      -8.07875263     -12.14369350       8.07875279
Ag      -8.06869892     -10.10169810      10.10169796
Ag      -6.06579702     -12.14328114      10.10609172
Ag      -6.05318787     -10.12778753       8.07762925
Ag      -8.08500974     -12.07856085      12.07856048
Ag      -6.06579693     -10.10609202      12.14328118
Ag      -8.07875337      -8.07875331     -12.14369416
Ag      -8.07762967      -6.05318822     -10.12778795
Ag      -6.05318826      -8.07762987     -10.12778803
Ag      -6.06535262      -6.06535252     -12.17137467
Ag      -8.07620615      -8.07620642      -8.07620614
Ag      -8.09293585      -6.05600233      -6.05600201
Ag      -6.05600192      -8.09293634      -6.05600199
Ag      -6.05600207      -6.05600241      -8.09293613
Ag      -8.09170774      -8.09170811      -4.03610614
Ag      -8.10976702      -6.06556778      -2.01917469
Ag      -6.06556746      -8.10976733      -2.01917456
Ag      -6.06741574      -6.06741626      -4.03764473
Ag      -8.09973453      -8.09973472       0.00000027
Ag      -8.10976702      -6.06556759       2.01917496
Ag      -6.06556746      -8.10976702       2.01917505
Ag      -6.07480563      -6.07480588       0.00000016
Ag      -8.09170770      -8.09170773       4.03610653
Ag      -8.09293577      -6.05600192       6.05600209
Ag      -6.05600186      -8.09293562       6.05600202
Ag      -6.06741569      -6.06741568       4.03764490
Ag      -8.07620592      -8.07620602       8.07620609
Ag      -8.07762921      -6.05318815      10.12778780
Ag      -6.05318780      -8.07762931      10.12778762
Ag      -6.05600186      -6.05600190       8.09293587
Ag      -8.07875256      -8.07875309      12.14369392
Ag      -6.06535180      -6.06535217      12.17137437
Ag      -8.09321947      -4.04506600     -12.16459390
Ag      -8.09066804      -2.02220333     -10.14234620
Ag      -6.06155577      -4.03986906     -10.15416300
Ag      -6.07527356      -2.02295636     -12.18603934
Ag      -8.09170814      -4.03610643      -8.09170805
Ag      -8.10976744      -2.01917474      -6.06556757
Ag      -6.06741595      -4.03764508      -6.06741590
Ag      -6.06556795      -2.01917466      -8.10976731
Ag      -8.11412919      -4.04034899      -4.04034878
Ag      -8.12982110      -2.02230208      -2.02230211
Ag      -6.07997058      -4.04403852      -2.01967299
Ag      -6.07997080      -2.01967307      -4.04403824
Ag      -8.12368793      -4.04414805       0.00000010
Ag      -8.12982108      -2.02230205       2.02230231
Ag      -6.07997053      -4.04403829       2.01967325
Ag      -6.08926916      -2.02166331       0.00000017
Ag      -8.11412916      -4.04034876       4.04034894
Ag      -8.10976732      -2.01917481       6.06556777
Ag      -6.06741578      -4.03764464       6.06741593
Ag      -6.07997065      -2.01967289       4.04403855
Ag      -8.09170792      -4.03610646       8.09170806
Ag      -8.09066761      -2.02220384      10.14234613
Ag      -6.06155524      -4.03986910      10.15416263
Ag      -6.06556760      -2.01917482       8.10976726
Ag      -8.09321872      -4.04506620      12.16459401
Ag      -6.07527261      -2.02295679      12.18603925
Ag      -8.10022779       0.00000049     -12.16936134
Ag      -8.09066800       2.02220413     -10.14234599
Ag      -6.06779032       0.00000050     -10.16240216
Ag      -6.07527351       2.02295733     -12.18603903
Ag      -8.09973519       0.00000038      -8.09973475
Ag      -8.10976757       2.01917527      -6.06556739
Ag      -6.07480619       0.00000033      -6.07480561
Ag      -6.06556807       2.01917536      -8.10976704
Ag      -8.12368828       0.00000031      -4.04414789
Ag      -8.12982127       2.02230266      -2.02230208
Ag      -6.08926935       0.00000038      -2.02166328
Ag      -6.07997100       2.01967362      -4.04403805
Ag      -8.13463741       0.00000032       0.00000008
Ag      -8.12982127       2.02230252       2.02230217
Ag      -6.08926925       0.00000035       2.02166366
Ag      -6.08926937       2.02166401       0.00000014
Ag      -8.12368822       0.00000016       4.04414811
Ag      -8.10976754       2.01917484       6.06556767
Ag      -6.07480592       0.00000012       6.07480591
Ag      -6.07997082       2.01967333       4.04403838
Ag      -8.09973500      -0.00000014       8.09973496
Ag      -8.09066774       2.02220340      10.14234624
Ag      -6.06778969      -0.00000013      10.16240196
Ag      -6.06556772       2.01917474       8.10976722
Ag      -8.10022707      -0.00000033      12.16936193
Ag      -6.07527262       2.02295641      12.18603961
Ag      -8.09321931       4.04506654     -12.16459340
Ag      -8.07762952       6.05318841     -10.12778756
Ag      -6.06155577       4.03986962     -10.15416259
Ag      -6.06535236       6.06535268     -12.17137401
Ag      -8.09170824       4.03610688      -8.09170768
Ag      -8.09293607       6.05600242      -6.05600168
Ag      -6.06741624       4.03764533      -6.06741544
Ag      -6.05600224       6.05600243      -8.09293554
Ag      -8.11412948       4.04034933      -4.04034858
Ag      -8.10976740       6.06556805      -2.01917478
Ag      -6.07997096       4.04403896      -2.01967286
Ag      -6.06741615       6.06741628      -4.03764442
Ag      -8.12368827       4.04414851      -0.00000005
Ag      -8.10976748       6.06556794       2.01917455
Ag      -6.07997088       4.04403875       2.01967301
Ag      -6.07480606       6.07480619      -0.00000005
Ag      -8.11412954       4.04034899       4.04034864
Ag      -8.09293629       6.05600208       6.05600184
Ag      -6.06741607       4.03764475       6.06741569
Ag      -6.06741610       6.06741592       4.03764445
Ag      -8.09170827       4.03610630       8.09170803
Ag      -8.07762956       6.05318809      10.12778817
Ag      -6.06155533       4.03986891      10.15416281
Ag      -6.05600214       6.05600193       8.09293580
Ag      -8.09321892       4.04506574      12.16459477
Ag      -6.06535180       6.06535202      12.17137540
Ag      -8.07875286       8.07875327     -12.14369342
Ag      -8.06869893      10.10169822     -10.10169783
Ag      -6.05318800       8.07762959     -10.12778749
Ag      -6.06579698      10.10609214     -12.14328086
Ag      -8.07620610       8.07620634      -8.07620585
Ag      -8.07762914      10.12778780      -6.05318781
Ag      -6.05600210       8.09293604      -6.05600165
Ag      -6.05318781      10.12778776      -8.07762903
Ag      -8.09170796       8.09170813      -4.03610624
Ag      -8.09066740      10.14234598      -2.02220372
Ag      -6.06556774       8.10976728      -2.01917478
Ag      -6.06155527      10.15416255      -4.03986886
Ag      -8.09973488       8.09973496      -0.00000024
Ag      -8.09066750      10.14234613       2.02220320
Ag      -6.06556774       8.10976721       2.01917449
Ag      -6.06778966      10.16240181      -0.00000024
Ag      -8.09170816       8.09170808       4.03610602
Ag      -8.07762944      10.12778819       6.05318781
Ag      -6.05600214       8.09293583       6.05600170
Ag      -6.06155529      10.15416274       4.03986862
Ag      -8.07620638       8.07620635       8.07620620
Ag      -8.06869912      10.10169878      10.10169860
Ag      -6.05318782       8.07762952      10.12778805
Ag      -6.05318780      10.12778813       8.07762929
Ag      -8.07875282       8.07875323      12.14369532
Ag      -6.06579657      10.10609245      12.14328253
Ag      -8.08500962      12.07856066     -12.07856029
Ag      -6.06579678      12.14328095     -10.10609163
Ag      -8.07875242      12.14369342      -8.07875264
Ag      -6.06535173      12.17137355      -6.06535177
Ag      -8.09321846      12.16459290      -4.04506587
Ag      -6.07527251      12.18603800      -2.02295670
Ag      -8.10022674      12.16936072      -0.00000038
Ag      -6.07527251      12.18603852       2.02295615
Ag      -8.09321867      12.16459392       4.04506545
Ag      -6.06535176      12.17137483       6.06535170
Ag      -8.07875274      12.14369503       8.07875295
Ag      -6.06579657      12.14328251      10.10609217
Ag      -8.08500956      12.07856214      12.07856196
Ag      -4.05108886     -12.08920010     -12.08919976
Ag      -4.04390823     -10.11937282     -10.11937256
Ag      -2.02461628     -12.15182917     -10.11726301
Ag      -2.02461631     -10.11726345     -12.15182926
Ag      -4.04506630     -12.16459367      -8.09321902
Ag      -4.03986909     -10.15416301      -6.06155536
Ag      -2.02295691     -12.18603856      -6.07527284
Ag      -2.02220366     -10.14234662      -8.09066793
Ag      -4.04690708     -12.19284947      -4.04690649
Ag      -4.04494751     -10.17367625      -2.02131117
Ag      -2.02488171     -12.20617065      -2.02488086
Ag      -2.02131159     -10.17367657      -4.04494717
Ag      -4.05138406     -12.20106568       0.00000051
Ag      -4.04494755     -10.17367598       2.02131190
Ag      -2.02488176     -12.20617051       2.02488182
Ag      -2.02338843     -10.18317464       0.00000042
Ag      -4.04690703     -12.19284918       4.04690704
Ag      -4.03986912     -10.15416233       6.06155537
Ag      -2.02295699     -12.18603813       6.07527286
Ag      -2.02131178     -10.17367594       4.04494756
Ag      -4.04506602     -12.16459303       8.09321872
Ag      -4.04390783     -10.11937203      10.11937190
Ag      -2.02461599     -12.15182849      10.11726221
Ag      -2.02220382     -10.14234573       8.09066725
Ag      -4.05108784     -12.08919945      12.08919914
Ag      -2.02461587     -10.11726252      12.15182848
Ag      -4.04506641      -8.09321959     -12.16459408
Ag      -4.03986921      -6.06155582     -10.15416307
Ag      -2.02220366      -8.09066836     -10.14234647
Ag      -2.02295694      -6.07527342     -12.18603949
Ag      -4.03610632      -8.09170857      -8.09170819
Ag      -4.03764468      -6.06741649      -6.06741595
Ag      -2.01917461      -8.10976798      -6.06556767
Ag      -2.01917466      -6.06556829      -8.10976753
Ag      -4.04034868      -8.11412964      -4.04034866
Ag      -4.04403823      -6.07997095      -2.01967296
Ag      -2.02230203      -8.12982134      -2.02230194
Ag      -2.01967289      -6.07997128      -4.04403827
Ag      -4.04414793      -8.12368801       0.00000027
Ag      -4.04403824      -6.07997055       2.01967323
Ag      -2.02230216      -8.12982086       2.02230234
Ag      -2.02166330      -6.08926930       0.00000015
Ag      -4.04034878      -8.11412890       4.04034890
Ag      -4.03764470      -6.06741563       6.06741577
Ag      -2.01917494      -8.10976688       6.06556739
Ag      -2.01967304      -6.07997043       4.04403831
Ag      -4.03610635      -8.09170768       8.09170769
Ag      -4.03986889      -6.06155534      10.15416245
Ag      -2.02220368      -8.09066742      10.14234562
Ag      -2.01917488      -6.06556743       8.10976683
Ag      -4.04506574      -8.09321886      12.16459345
Ag      -2.02295655      -6.07527282      12.18603880
Ag      -4.04690734      -4.04690690     -12.19285069
Ag      -4.04494783      -2.02131126     -10.17367667
Ag      -2.02131168      -4.04494753     -10.17367678
Ag      -2.02488184      -2.02488100     -12.20617235
Ag      -4.04034893      -4.04034907      -8.11412944
Ag      -4.04403860      -2.01967314      -6.07997051
Ag      -2.01967302      -4.04403889      -6.07997060
Ag      -2.02230228      -2.02230212      -8.12982113
Ag      -4.04563833      -4.04563870      -4.04563822
Ag      -4.05191729      -2.02294756      -2.02294741
Ag      -2.02294749      -4.05191749      -2.02294743
Ag      -2.02294768      -2.02294775      -4.05191689
Ag      -4.05030786      -4.05030800       0.00000016
Ag      -4.05191719      -2.02294741       2.02294785
Ag      -2.02294750      -4.05191714       2.02294775
Ag      -2.02518841      -2.02518837       0.00000028
Ag      -4.04563825      -4.04563816       4.04563840
Ag      -4.04403835      -2.01967292       6.07997059
Ag      -2.01967308      -4.04403818       6.07997039
Ag      -2.02294757      -2.02294741       4.05191721
Ag      -4.04034873      -4.04034871       8.11412904
Ag      -4.04494723      -2.02131160      10.17367609
Ag      -2.02131148      -4.04494737      10.17367592
Ag      -2.02230211      -2.02230206       8.12982067
Ag      -4.04690651      -4.04690682      12.19285022
Ag      -2.02488113      -2.02488141      12.20617171
Ag      -4.05138443       0.00000067     -12.20106715
Ag      -4.04494791       2.02131224     -10.17367640
Ag      -2.02338861       0.00000060     -10.18317513
Ag      -2.02488187       2.02488230     -12.20617208
Ag      -4.04414840       0.00000042      -8.12368798
Ag      -4.04403881       2.01967361      -6.07997022
Ag      -2.02166371       0.00000025      -6.08926879
Ag      -2.02230247       2.02230274      -8.12982080
Ag      -4.05030825       0.00000031      -4.05030761
Ag      -4.05191751       2.02294819      -2.02294731
Ag      -2.02518859       0.00000032      -2.02518810
Ag      -2.02294792       2.02294810      -4.05191668
Ag      -4.05595013       0.00000040       0.00000026
Ag      -4.05191733       2.02294805       2.02294776
Ag      -2.02518845       0.00000034       2.02518873
Ag      -2.02518858       2.02518894       0.00000031
Ag      -4.05030799       0.00000028       4.05030804
Ag      -4.04403840       2.01967315       6.07997048
Ag      -2.02166342       0.00000015       6.08926890
Ag      -2.02294759       2.02294785       4.05191713
Ag      -4.04414792       0.00000002       8.12368788
Ag      -4.04494718       2.02131146      10.17367617
Ag      -2.02338808       0.00000000      10.18317448
Ag      -2.02230200       2.02230211       8.12982064
Ag      -4.05138341      -0.00000013      12.20106702
Ag      -2.02488097       2.02488128      12.20617193
Ag      -4.04690730       4.04690758     -12.19285017
Ag      -4.03986927       6.06155586     -10.15416250
Ag      -2.02131187       4.04494808     -10.17367629
Ag      -2.02295691       6.07527349     -12.18603887
Ag      -4.04034921       4.04034939      -8.11412887
Ag      -4.03764510       6.06741625      -6.06741537
Ag      -2.01967344       4.04403889      -6.07997008
Ag      -2.01917507       6.06556800      -8.10976682
Ag      -4.04563874       4.04563889      -4.04563786
Ag      -4.04403865       6.07997095      -2.01967286
Ag      -2.02294788       4.05191763      -2.02294725
Ag      -2.01967339       6.07997091      -4.04403790
Ag      -4.05030820       4.05030841       0.00000013
Ag      -4.04403851       6.07997072       2.01967289
Ag      -2.02294767       4.05191740       2.02294765
Ag      -2.02166361       6.08926919       0.00000006
Ag      -4.04563843       4.04563845       4.04563814
Ag      -4.03764481       6.06741567       6.06741548
Ag      -2.01967299       4.04403825       6.07997025
Ag      -2.01967304       6.07997043       4.04403802
Ag      -4.04034873       4.04034864       8.11412895
Ag      -4.03986871       6.06155527      10.15416267
Ag      -2.02131120       4.04494725      10.17367602
Ag      -2.01917459       6.06556734       8.10976678
Ag      -4.04690634       4.04690660      12.19285085
Ag      -2.02295609       6.07527259      12.18603943
Ag      -4.04506597       8.09321927     -12.16459322
Ag      -4.04390769      10.11937218     -10.11937185
Ag      -2.02220364       8.09066774     -10.14234580
Ag      -2.02461566      10.11726273     -12.15182831
Ag      -4.03610647       8.09170807      -8.09170755
Ag      -4.03986896      10.15416256      -6.06155507
Ag      -2.01917499       8.10976724      -6.06556720
Ag      -2.02220353      10.14234593      -8.09066722
Ag      -4.04034898       8.11412921      -4.04034851
Ag      -4.04494731      10.17367603      -2.02131157
Ag      -2.02230226       8.12982085      -2.02230203
Ag      -2.02131155      10.17367607      -4.04494721
Ag      -4.04414806       8.12368790      -0.00000013
Ag      -4.04494723      10.17367610       2.02131119
Ag      -2.02230209       8.12982067       2.02230187
Ag      -2.02338814      10.18317454      -0.00000017
Ag      -4.04034879       8.11412895       4.04034836
Ag      -4.03986875      10.15416268       6.06155496
Ag      -2.01917463       8.10976682       6.06556713
Ag      -2.02131128      10.17367604       4.04494693
Ag      -4.03610618       8.09170779       8.09170766
Ag      -4.04390723      10.11937248      10.11937228
Ag      -2.02220306       8.09066741      10.14234593
Ag      -2.02220309      10.14234603       8.09066716
Ag      -4.04506528       8.09321885      12.16459457
Ag      -2.02461494      10.11726278      12.15182936
Ag      -4.05108762      12.08919924     -12.08919895
Ag      -2.02461554      12.15182826     -10.11726225
Ag      -4.04506562      12.16459296      -8.09321852
Ag      -2.02295652      12.18603817      -6.07527249
Ag      -4.04690655      12.19284921      -4.04690659
Ag      -2.02488121      12.20617081      -2.02488144
Ag      -4.05138344      12.20106591      -0.00000029
Ag      -2.02488105      12.20617116       2.02488096
Ag      -4.04690638      12.19285008       4.04690624
Ag      -2.02295616      12.18603900       6.07527222
Ag      -4.04506531      12.16459431       8.09321853
Ag      -2.02461497      12.15182941      10.11726244
Ag      -4.05108696      12.08920050      12.08920024
Ag      -0.00000055     -12.09233219     -12.09233200
Ag      -0.00000008     -10.12448709     -10.12448679
Ag       2.02461576     -12.15182901     -10.11726322
Ag       2.02461577     -10.11726362     -12.15182914
Ag      -0.00000018     -12.16936118      -8.10022751
Ag       0.00000010     -10.16240258      -6.06778984
Ag       2.02295664     -12.18603840      -6.07527291
Ag       2.02220387     -10.14234680      -8.09066802
Ag      -0.00000020     -12.20106594      -4.05138342
Ag       0.00000004     -10.18317496      -2.02338794
Ag       2.02488134     -12.20617060      -2.02488091
Ag       2.02131180     -10.17367681      -4.04494721
Ag      -0.00000030     -12.21019162       0.00000053
Ag      -0.00000014     -10.18317457       2.02338854
Ag       2.02488115     -12.20617065       2.02488162
Ag       2.02338842     -10.18317482       0.00000024
Ag      -0.00000043     -12.20106579       4.05138390
Ag      -0.00000035     -10.16240170       6.06778955
Ag       2.02295611     -12.18603857       6.07527265
Ag       2.02131134     -10.17367610       4.04494726
Ag      -0.00000047     -12.16936089       8.10022685
Ag      -0.00000033     -10.12448614      10.12448588
Ag       2.02461523     -12.15182896      10.11726232
Ag       2.02220313     -10.14234590       8.09066710
Ag      -0.00000039     -12.09233173      12.09233144
Ag       2.02461527     -10.11726259      12.15182894
Ag      -0.00000014      -8.10022809     -12.16936169
Ag       0.00000014      -6.06779040     -10.16240248
Ag       2.02220390      -8.09066856     -10.14234650
Ag       2.02295678      -6.07527357     -12.18603938
Ag       0.00000028      -8.09973574      -8.09973516
Ag       0.00000036      -6.07480672      -6.07480584
Ag       2.01917527      -8.10976825      -6.06556766
Ag       2.01917531      -6.06556853      -8.10976753
Ag       0.00000031      -8.12368875      -4.04414786
Ag       0.00000034      -6.08926964      -2.02166331
Ag       2.02230258      -8.12982155      -2.02230202
Ag       2.01967361      -6.07997150      -4.04403818
Ag       0.00000018      -8.13463739       0.00000017
Ag       0.00000018      -6.08926910       2.02166344
Ag       2.02230230      -8.12982095       2.02230202
Ag       2.02166391      -6.08926939      -0.00000001
Ag      -0.00000010      -8.12368774       4.04414785
Ag      -0.00000013      -6.07480554       6.07480537
Ag       2.01917452      -8.10976690       6.06556702
Ag       2.01967314      -6.07997039       4.04403791
Ag      -0.00000029      -8.09973451       8.09973426