108
Properties=species:S:1:pos:R:3 Geometry=T Step:=T 39=T pbc="F F F"
Ag       0.13791851       0.13791837       0.13791847
Ag       0.07500145       2.11238337       2.11238338
Ag       2.11238343       0.07500141       2.11238341
Ag       2.11238343       2.11238339       0.07500144
Ag       0.12437995       0.12437994       4.12408036
Ag       0.12955893       0.12955886       8.13849548
Ag       4.12408046       0.12437998       0.12437994
Ag       8.13849547       0.12955884       0.12955886
Ag       0.12438000       4.12408046       0.12437995
Ag       0.12955883       8.13849545       0.12955878
Ag       0.06442898       2.10774472       6.13127308
Ag       0.12955892       2.12239548      10.13133211
Ag       4.12874976       2.09879190       2.09879190
Ag       8.14912334       2.11176765       2.11176766
Ag       0.06442886       6.13127312       2.10774471
Ag       0.12955882      10.13133218       2.12239549
Ag       2.10774473       0.06442896       6.13127307
Ag       2.12239553       0.12955883      10.13133212
Ag       6.13127310       0.06442890       2.10774472
Ag      10.13133218       0.12955881       2.12239552
Ag       2.09879191       4.12874975       2.09879190
Ag       2.11176766       8.14912333       2.11176765
Ag       2.09879188       2.09879188       4.12874976
Ag       2.11176765       2.11176762       8.14912335
Ag       6.13127310       2.10774476       0.06442889
Ag      10.13133213       2.12239556       0.12955889
Ag       2.10774476       6.13127311       0.06442884
Ag       2.12239558      10.13133213       0.12955881
Ag       0.05326870       4.12478611       4.12478606
Ag       0.07500148       8.14850758       8.14850760
Ag       0.06442887       8.15314627       4.12961785
Ag       0.06442899       4.12961789       8.15314625
Ag       4.12478611       0.05326872       4.12478607
Ag       8.14850758       0.07500151       8.14850755
Ag       4.12961789       0.06442898       8.15314625
Ag       8.15314627       0.06442891       4.12961786
Ag       4.12478611       4.12478613       0.05326866
Ag       8.14850759       8.14850755       0.07500140
Ag       8.15314623       4.12961792       0.06442889
Ag       4.12961791       8.15314622       0.06442884
Ag       0.05326873       6.13610490       6.13610485
Ag       0.13791851      10.12297249      10.12297263
Ag       0.12438001      10.13651101       6.13681050
Ag       0.12437995       6.13681059      10.13651103
Ag       4.12522918       2.08469465       6.13566181
Ag       8.14850758       2.11238341      10.18588947
Ag       4.12961789       2.10774472      10.19646199
Ag       8.16209909       2.09879191       6.13214122
Ag       4.12522921       6.13566177       2.08469466
Ag       8.14850760      10.18588957       2.11238340
Ag       8.16209908       6.13214122       2.09879190
Ag       4.12961791      10.19646213       2.10774474
Ag       2.08469464       4.12522918       6.13566181
Ag       2.11238343       8.14850756      10.18588954
Ag       2.09879191       8.16209908       6.13214124
Ag       2.10774473       4.12961790      10.19646200
Ag       6.13610488       0.05326878       6.13610484
Ag      10.12297252       0.13791847      10.12297252
Ag       6.13681058       0.12437995      10.13651100
Ag      10.13651102       0.12438000       6.13681049
Ag       6.13566177       4.12522921       2.08469467
Ag      10.18588962       8.14850754       2.11238342
Ag      10.19646210       4.12961793       2.10774475
Ag       6.13214124       8.16209907       2.09879191
Ag       2.08469464       6.13566177       4.12522922
Ag       2.11238342      10.18588951       8.14850759
Ag       2.10774475      10.19646212       4.12961786
Ag       2.09879188       6.13214123       8.16209910
Ag       6.13566178       2.08469465       4.12522921
Ag      10.18588949       2.11238342       8.14850755
Ag       6.13214122       2.09879188       8.16209909
Ag      10.19646208       2.10774475       4.12961786
Ag       6.13610487       6.13610489       0.05326863
Ag      10.12297261      10.12297247       0.13791848
Ag      10.13651104       6.13681056       0.12437994
Ag       6.13681055      10.13651100       0.12437995
Ag       4.12041269       4.12041269       4.12041276
Ag       8.14912335       8.14912333       8.14912335
Ag       8.16209910       8.16209909       4.12874976
Ag       4.12522918       4.12522919       8.17619634
Ag       8.16209910       4.12874977       8.16209909
Ag       4.12522921       8.17619634       4.12522923
Ag       4.12874976       8.16209910       8.16209909
Ag       8.17619633       4.12522921       4.12522922
Ag       4.12041268       6.14047827       6.14047833
Ag       8.13849551      10.13133212      10.13133216
Ag       8.15314626      10.19646208       6.13127307
Ag       4.12478612       6.13610491      10.20762222
Ag       8.15314629       6.13127313      10.19646206
Ag       4.12478612      10.20762230       6.13610486
Ag       4.12408045      10.13651104      10.13651101
Ag       8.17619633       6.13566178       6.13566179
Ag       6.14047827       4.12041268       6.14047833
Ag      10.13133220       8.13849546      10.13133218
Ag      10.19646210       8.15314625       6.13127307
Ag       6.13610490       4.12478613      10.20762219
Ag      10.13651104       4.12408046      10.13651099
Ag       6.13566178       8.17619633       6.13566179
Ag       6.13127312       8.15314628      10.19646207
Ag      10.20762225       4.12478614       6.13610485
Ag       6.14047826       6.14047826       4.12041275
Ag      10.13133215      10.13133208       8.13849545
Ag      10.13651105      10.13651103       4.12408039
Ag       6.13566178       6.13566179       8.17619634
Ag      10.19646208       6.13127312       8.15314625
Ag       6.13610490      10.20762235       4.12478607
Ag       6.13127312      10.19646208       8.15314625
Ag      10.20762233       6.13610491       4.12478609
