365
Properties=species:S:1:pos:R:3 Geometry=T Step:=T 39=T pbc="F F F"
Ag      -8.02222688      -8.02222690      -8.02222684
Ag      -8.08351336      -6.04903638      -6.04903645
Ag      -6.04903625      -8.08351324      -6.04903640
Ag      -6.04903624      -6.04903631      -8.08351317
Ag      -8.03654907      -8.03654913      -4.04141356
Ag      -8.09934109      -6.06426729      -2.02031962
Ag      -6.06426708      -8.09934093      -2.02031961
Ag      -6.06058579      -6.06058588      -4.02671298
Ag      -8.04451908      -8.04451915       0.00000007
Ag      -8.09934107      -6.06426722       2.02031959
Ag      -6.06426699      -8.09934092       2.02031957
Ag      -6.07356929      -6.07356943      -0.00000008
Ag      -8.03654897      -8.03654902       4.04141354
Ag      -8.08351333      -6.04903617       6.04903620
Ag      -6.04903608      -8.08351322       6.04903612
Ag      -6.06058562      -6.06058574       4.02671278
Ag      -8.02222669      -8.02222668       8.02222660
Ag      -6.04903606      -6.04903612       8.08351313
Ag      -8.03654888      -4.04141348      -8.03654901
Ag      -8.09934088      -2.02031947      -6.06426742
Ag      -6.06058576      -4.02671280      -6.06058602
Ag      -6.06426701      -2.02031944      -8.09934067
Ag      -8.10132014      -4.03654361      -4.03654380
Ag      -8.12479560      -2.02019798      -2.02019819
Ag      -6.08513341      -4.03487341      -2.01127077
Ag      -6.08513339      -2.01127055      -4.03487365
Ag      -8.11688474      -4.04543391      -0.00000003
Ag      -8.12479561      -2.02019803       2.02019810
Ag      -6.08513333      -4.03487338       2.01127058
Ag      -6.10315432      -2.01520652      -0.00000009
Ag      -8.10132012      -4.03654355       4.03654368
Ag      -8.09934089      -2.02031950       6.06426729
Ag      -6.06058559      -4.02671269       6.06058579
Ag      -6.08513331      -2.01127049       4.03487349
Ag      -8.03654881      -4.04141350       8.03654890
Ag      -6.06426693      -2.02031948       8.09934069
Ag      -8.04451874       0.00000021      -8.04451889
Ag      -8.09934077       2.02031967      -6.06426732
Ag      -6.07356924       0.00000005      -6.07356955
Ag      -6.06426690       2.02031964      -8.09934054
Ag      -8.11688456       0.00000009      -4.04543414
Ag      -8.12479551       2.02019814      -2.02019823
Ag      -6.10315432       0.00000005      -2.01520676
Ag      -6.08513332       2.01127059      -4.03487357
Ag      -8.13553843       0.00000005      -0.00000009
Ag      -8.12479561       2.02019808       2.02019803
Ag      -6.10315432       0.00000005       2.01520659
Ag      -6.10315434       2.01520662      -0.00000009
Ag      -8.11688462       0.00000002       4.04543403
Ag      -8.09934089       2.02031962       6.06426733
Ag      -6.07356923       0.00000010       6.07356946
Ag      -6.08513340       2.01127064       4.03487348
Ag      -8.04451884       0.00000002       8.04451896
Ag      -6.06426699       2.02031960       8.09934066
Ag      -8.03654862       4.04141364      -8.03654876
Ag      -8.08351304       6.04903627      -6.04903621
Ag      -6.06058556       4.02671277      -6.06058580
Ag      -6.04903593       6.04903614      -8.08351288
Ag      -8.10131995       4.03654368      -4.03654370
Ag      -8.09934082       6.06426735      -2.02031964
Ag      -6.08513333       4.03487345      -2.01127066
Ag      -6.06058556       6.06058580      -4.02671280
Ag      -8.11688462       4.04543405      -0.00000010
Ag      -8.09934091       6.06426743       2.02031953
Ag      -6.08513341       4.03487349       2.01127059
Ag      -6.07356924       6.07356952      -0.00000003
Ag      -8.10132009       4.03654370       4.03654366
Ag      -8.08351315       6.04903643       6.04903632
Ag      -6.06058570       4.02671286       6.06058586
Ag      -6.06058570       6.06058594       4.02671280
Ag      -8.03654885       4.04141360       8.03654897
Ag      -6.04903607       6.04903631       8.08351299
Ag      -8.02222638       8.02222657      -8.02222649
Ag      -6.04903592       8.08351297      -6.04903616
Ag      -8.03654865       8.03654893      -4.04141360
Ag      -6.06426688       8.09934073      -2.02031963
Ag      -8.04451880       8.04451913      -0.00000011
Ag      -6.06426697       8.09934082       2.02031951
Ag      -8.03654885       8.03654914       4.04141352
Ag      -6.04903606       8.08351311       6.04903625
Ag      -8.02222659       8.02222683       8.02222673
Ag      -4.04141337      -8.03654868      -8.03654873
Ag      -4.02671268      -6.06058579      -6.06058595
Ag      -2.02031941      -8.09934046      -6.06426724
Ag      -2.02031939      -6.06426706      -8.09934041
Ag      -4.03654338      -8.10131977      -4.03654376
Ag      -4.03487319      -6.08513351      -2.01127077
Ag      -2.02019785      -8.12479497      -2.02019817
Ag      -2.01127042      -6.08513344      -4.03487363
Ag      -4.04543364      -8.11688433      -0.00000004
Ag      -4.03487312      -6.08513345       2.01127057
Ag      -2.02019786      -8.12479499       2.02019807
Ag      -2.01520637      -6.10315438      -0.00000009
Ag      -4.03654333      -8.10131978       4.03654359
Ag      -4.02671257      -6.06058567       6.06058573
Ag      -2.02031951      -8.09934055       6.06426710
Ag      -2.01127034      -6.08513341       4.03487350
Ag      -4.04141349      -8.03654868       8.03654861
Ag      -2.02031950      -6.06426708       8.09934044
Ag      -4.03654335      -4.03654354      -8.10131958
Ag      -4.03487317      -2.01127054      -6.08513367
Ag      -2.01127041      -4.03487337      -6.08513361
Ag      -2.02019782      -2.02019794      -8.12479456
Ag      -4.03554626      -4.03554652      -4.03554679
Ag      -4.04768321      -2.01481864      -2.01481891
Ag      -2.01481840      -4.04768355      -2.01481891
Ag      -2.01481841      -2.01481865      -4.04768384
Ag      -4.04432604      -4.04432636      -0.00000012
Ag      -4.04768317      -2.01481863       2.01481872
Ag      -2.01481835      -4.04768357       2.01481875
Ag      -2.01892653      -2.01892685      -0.00000010
Ag      -4.03554612      -4.03554643       4.03554658
Ag      -4.03487309      -2.01127048       6.08513353
Ag      -2.01127033      -4.03487338       6.08513350
Ag      -2.01481834      -2.01481866       4.04768371
Ag      -4.03654331      -4.03654351       8.10131960
Ag      -2.02019785      -2.02019800       8.12479466
Ag      -4.04543360       0.00000009      -8.11688389
Ag      -4.03487309       2.01127056      -6.08513355
Ag      -2.01520638       0.00000003      -6.10315448
Ag      -2.02019785       2.02019806      -8.12479443
Ag      -4.04432603      -0.00000000      -4.04432662
Ag      -4.04768318       2.01481867      -2.01481886
Ag      -2.01892655       0.00000001      -2.01892712
Ag      -2.01481837       2.01481866      -4.04768378
Ag      -4.05670259       0.00000003      -0.00000011
Ag      -4.04768319       2.01481868       2.01481869
Ag      -2.01892653      -0.00000002       2.01892692
Ag      -2.01892654       2.01892686      -0.00000013
Ag      -4.04432601       0.00000005       4.04432648
Ag      -4.03487313       2.01127062       6.08513353
Ag      -2.01520636       0.00000004       6.10315441
Ag      -2.01481838       2.01481866       4.04768364
Ag      -4.04543360       0.00000004       8.11688399
Ag      -2.02019782       2.02019802       8.12479459
Ag      -4.03654325       4.03654352      -8.10131934
Ag      -4.02671248       6.06058565      -6.06058571
Ag      -2.01127032       4.03487335      -6.08513345
Ag      -2.02031942       6.06426694      -8.09934010
Ag      -4.03554611       4.03554646      -4.03554660
Ag      -4.03487307       6.08513348      -2.01127064
Ag      -2.01481836       4.04768356      -2.01481884
Ag      -2.01127032       6.08513336      -4.03487349
Ag      -4.04432601       4.04432640      -0.00000006
Ag      -4.03487311       6.08513355       2.01127057
Ag      -2.01481838       4.04768356       2.01481867
Ag      -2.01520636       6.10315438      -0.00000008
Ag      -4.03554620       4.03554654       4.03554655
Ag      -4.02671257       6.06058579       6.06058575
Ag      -2.01127039       4.03487339       6.08513342
Ag      -2.01127038       6.08513343       4.03487338
Ag      -4.03654330       4.03654358       8.10131949
Ag      -2.02031938       6.06426706       8.09934019
Ag      -4.04141329       8.03654834      -8.03654838
Ag      -2.02031942       8.09934015      -6.06426708
Ag      -4.03654324       8.10131949      -4.03654363
Ag      -2.02019785       8.12479466      -2.02019818
Ag      -4.04543356       8.11688412      -0.00000009
Ag      -2.02019780       8.12479476       2.02019797
Ag      -4.03654327       8.10131963       4.03654356
Ag      -2.02031937       8.09934029       6.06426704
Ag      -4.04141323       8.03654861       8.03654854
Ag       0.00000006      -8.04451843      -8.04451849
Ag      -0.00000004      -6.07356925      -6.07356941
Ag       2.02031941      -8.09934043      -6.06426717
Ag       2.02031940      -6.06426700      -8.09934035
Ag      -0.00000001      -8.11688394      -4.04543407
Ag      -0.00000003      -6.10315435      -2.01520677
Ag       2.02019780      -8.12479497      -2.02019820
Ag       2.01127033      -6.08513341      -4.03487358
Ag      -0.00000005      -8.13553768      -0.00000007
Ag       0.00000002      -6.10315439       2.01520667
Ag       2.02019782      -8.12479507       2.02019809
Ag       2.01520637      -6.10315445      -0.00000003
Ag      -0.00000005      -8.11688404       4.04543401
Ag      -0.00000001      -6.07356933       6.07356939
Ag       2.02031936      -8.09934062       6.06426725
Ag       2.01127047      -6.08513355       4.03487363
Ag      -0.00000024      -8.04451862       8.04451854
Ag       2.02031934      -6.06426722       8.09934051
Ag       0.00000000      -4.04543382      -8.11688370
Ag      -0.00000005      -2.01520654      -6.10315446
Ag       2.01127032      -4.03487336      -6.08513352
Ag       2.02019776      -2.02019799      -8.12479452
Ag      -0.00000004      -4.04432635      -4.04432662
Ag      -0.00000004      -2.01892686      -2.01892711
Ag       2.01481838      -4.04768360      -2.01481887
Ag       2.01481834      -2.01481867      -4.04768382
Ag       0.00000000      -4.05670300      -0.00000006
Ag       0.00000001      -2.01892691       2.01892699
Ag       2.01481847      -4.04768368       2.01481885
Ag       2.01892652      -2.01892692      -0.00000005
Ag       0.00000008      -4.04432643       4.04432659
Ag       0.00000001      -2.01520658       6.10315444
Ag       2.01127045      -4.03487351       6.08513363
Ag       2.01481846      -2.01481876       4.04768384
Ag      -0.00000007      -4.04543391       8.11688382
Ag       2.02019777      -2.02019801       8.12479472
Ag      -0.00000007       0.00000006      -8.13553707
Ag      -0.00000003       2.01520661      -6.10315442
Ag       2.01520629       0.00000005      -6.10315447
Ag       2.02019772       2.02019804      -8.12479446
Ag      -0.00000004       0.00000002      -4.05670324
Ag      -0.00000004       2.01892688      -2.01892711
Ag       2.01892647       0.00000001      -2.01892711
Ag       2.01481836       2.01481873      -4.04768382
Ag      -0.00000004      -0.00000001      -0.00000010
Ag      -0.00000001       2.01892685       2.01892691
Ag       2.01892654      -0.00000004       2.01892700
Ag       2.01892650       2.01892690      -0.00000009
Ag       0.00000001      -0.00000002       4.05670313
Ag      -0.00000003       2.01520659       6.10315435
Ag       2.01520636       0.00000000       6.10315448
Ag       2.01481841       2.01481867       4.04768371
Ag      -0.00000006       0.00000005       8.13553726
Ag       2.02019778       2.02019808       8.12479458
Ag      -0.00000006       4.04543384      -8.11688350
Ag      -0.00000002       6.07356922      -6.07356931
Ag       2.01127036       4.03487345      -6.08513351
Ag       2.02031929       6.06426705      -8.09934014
Ag       0.00000003       4.04432638      -4.04432655
Ag      -0.00000004       6.10315435      -2.01520672
Ag       2.01481836       4.04768365      -2.01481887
Ag       2.01127035       6.08513347      -4.03487356
Ag      -0.00000002       4.05670299      -0.00000011
Ag      -0.00000004       6.10315434       2.01520656
Ag       2.01481838       4.04768360       2.01481870
Ag       2.01520629       6.10315443      -0.00000008
Ag      -0.00000002       4.04432635       4.04432641
Ag      -0.00000007       6.07356921       6.07356920
Ag       2.01127032       4.03487338       6.08513339
Ag       2.01127031       6.08513338       4.03487339
Ag      -0.00000002       4.04543387       8.11688360
Ag       2.02031930       6.06426701       8.09934015
Ag      -0.00000019       8.04451817      -8.04451825
Ag       2.02031927       8.09934020      -6.06426718
Ag      -0.00000009       8.11688366      -4.04543401
Ag       2.02019768       8.12479472      -2.02019813
Ag      -0.00000009       8.13553738      -0.00000008
Ag       2.02019775       8.12479473       2.02019804
Ag      -0.00000002       8.11688373       4.04543387
Ag       2.02031930       8.09934024       6.06426700
Ag      -0.00000003       8.04451832       8.04451826
Ag       4.04141337      -8.03654855      -8.03654861
Ag       4.02671256      -6.06058568      -6.06058580
Ag       6.04903608      -8.08351320      -6.04903629
Ag       6.04903603      -6.04903613      -8.08351315
Ag       4.03654334      -8.10131974      -4.03654375
Ag       4.03487317      -6.08513355      -2.01127071
Ag       6.06426707      -8.09934100      -2.02031973
Ag       6.06058566      -6.06058581      -4.02671293
Ag       4.04543368      -8.11688442      -0.00000009
Ag       4.03487328      -6.08513366       2.01127072
Ag       6.06426721      -8.09934109       2.02031954
Ag       6.07356938      -6.07356957      -0.00000005
Ag       4.03654349      -8.10131990       4.03654379
Ag       4.02671276      -6.06058593       6.06058599
Ag       6.04903638      -8.08351344       6.04903650
Ag       6.06058590      -6.06058603       4.02671305
Ag       4.04141337      -8.03654887       8.03654881
Ag       6.04903634      -6.04903649       8.08351336
Ag       4.03654327      -4.03654354      -8.10131948
Ag       4.03487306      -2.01127052      -6.08513358
Ag       6.06058557      -4.02671274      -6.06058588
Ag       6.06426685      -2.02031951      -8.09934064
Ag       4.03554617      -4.03554652      -4.03554671
Ag       4.04768316      -2.01481871      -2.01481888
Ag       6.08513336      -4.03487349      -2.01127072
Ag       6.08513328      -2.01127054      -4.03487364
Ag       4.04432610      -4.04432652       0.00000000
Ag       4.04768327      -2.01481878       2.01481888
Ag       6.08513351      -4.03487359       2.01127074
Ag       6.10315435      -2.01520662      -0.00000003
Ag       4.03554639      -4.03554671       4.03554686
Ag       4.03487324      -2.01127064       6.08513373
Ag       6.06058585      -4.02671296       6.06058610
Ag       6.08513349      -2.01127067       4.03487372
Ag       4.03654342      -4.03654370       8.10131972
Ag       6.06426708      -2.02031950       8.09934088
Ag       4.04543351       0.00000002      -8.11688389
Ag       4.03487310       2.01127066      -6.08513362
Ag       6.07356917       0.00000007      -6.07356956
Ag       6.06426692       2.02031956      -8.09934061
Ag       4.04432597       0.00000006      -4.04432666
Ag       4.04768316       2.01481877      -2.01481890
Ag       6.10315429       0.00000004      -2.01520676
Ag       6.08513334       2.01127069      -4.03487366
Ag       4.05670256      -0.00000000      -0.00000005
Ag       4.04768321       2.01481871       2.01481877
Ag       6.10315437      -0.00000001       2.01520669
Ag       6.10315434       2.01520664      -0.00000008
Ag       4.04432610      -0.00000005       4.04432666
Ag       4.03487315       2.01127060       6.08513357
Ag       6.07356931       0.00000004       6.07356962
Ag       6.08513339       2.01127061       4.03487358
Ag       4.04543361       0.00000008       8.11688407
Ag       6.06426696       2.02031970       8.09934074
Ag       4.03654328       4.03654362      -8.10131938
Ag       4.02671257       6.06058583      -6.06058586
Ag       6.06058567       4.02671292      -6.06058597
Ag       6.04903611       6.04903634      -8.08351301
Ag       4.03554623       4.03554667      -4.03554676
Ag       4.03487311       6.08513363      -2.01127073
Ag       6.08513339       4.03487360      -2.01127076
Ag       6.06058570       6.06058599      -4.02671298
Ag       4.04432603       4.04432653      -0.00000011
Ag       4.03487310       6.08513355       2.01127055
Ag       6.08513338       4.03487353       2.01127058
Ag       6.07356927       6.07356960      -0.00000008
Ag       4.03554619       4.03554653       4.03554658
Ag       4.02671248       6.06058569       6.06058566
Ag       6.06058560       4.02671285       6.06058582
Ag       6.06058560       6.06058585       4.02671279
Ag       4.03654326       4.03654362       8.10131945
Ag       6.04903591       6.04903624       8.08351301
Ag       4.04141320       8.03654848      -8.03654854
Ag       6.04903612       8.08351308      -6.04903642
Ag       4.03654327       8.10131957      -4.03654373
Ag       6.06426700       8.09934085      -2.02031963
Ag       4.04543353       8.11688416      -0.00000003
Ag       6.06426694       8.09934083       2.02031958
Ag       4.03654325       8.10131956       4.03654360
Ag       6.04903592       8.08351310       6.04903617
Ag       4.04141317       8.03654848       8.03654841
Ag       8.02222670      -8.02222666      -8.02222676
Ag       8.08351331      -6.04903620      -6.04903636
Ag       8.03654901      -8.03654907      -4.04141376
Ag       8.09934113      -6.06426733      -2.02031976
Ag       8.04451925      -8.04451932      -0.00000022
Ag       8.09934124      -6.06426747       2.02031956
Ag       8.03654923      -8.03654930       4.04141361
Ag       8.08351354      -6.04903654       6.04903659
Ag       8.02222707      -8.02222712       8.02222708
Ag       8.03654871      -4.04141349      -8.03654894
Ag       8.09934080      -2.02031953      -6.06426739
Ag       8.10132007      -4.03654363      -4.03654383
Ag       8.12479561      -2.02019807      -2.02019825
Ag       8.11688482      -4.04543405      -0.00000010
Ag       8.12479573      -2.02019808       2.02019814
Ag       8.10132028      -4.03654378       4.03654390
Ag       8.09934104      -2.02031951       6.06426757
Ag       8.03654903      -4.04141359       8.03654922
Ag       8.04451872      -0.00000004      -8.04451900
Ag       8.09934078       2.02031958      -6.06426746
Ag       8.11688454       0.00000001      -4.04543419
Ag       8.12479558       2.02019811      -2.02019822
Ag       8.13553854       0.00000001      -0.00000008
Ag       8.12479563       2.02019812       2.02019811
Ag       8.11688469       0.00000005       4.04543420
Ag       8.09934092       2.02031971       6.06426743
Ag       8.04451893       0.00000023       8.04451918
Ag       8.03654872       4.04141355      -8.03654896
Ag       8.08351313       6.04903646      -6.04903648
Ag       8.10131998       4.03654377      -4.03654383
Ag       8.09934091       6.06426751      -2.02031965
Ag       8.11688465       4.04543412      -0.00000006
Ag       8.09934091       6.06426744       2.02031959
Ag       8.10132005       4.03654374       4.03654372
Ag       8.08351314       6.04903635       6.04903626
Ag       8.03654874       4.04141375       8.03654896
Ag       8.02222666       8.02222680      -8.02222683
Ag       8.03654885       8.03654913      -4.04141367
Ag       8.04451891       8.04451925       0.00000005
Ag       8.03654876       8.03654907       4.04141362
Ag       8.02222644       8.02222674       8.02222664

