63
Properties=species:S:1:pos:R:3 Geometry=T Step:=T 21=T pbc="F F F"
Ag      -3.97579018      -3.97579023      -3.97579023
Ag      -4.05304418      -2.00732113      -2.00732112
Ag      -2.00732111      -4.05304420      -2.00732111
Ag      -2.00732110      -2.00732111      -4.05304420
Ag      -3.99351507      -3.99351510       0.00000003
Ag      -4.05304413      -2.00732112       2.00732112
Ag      -2.00732108      -4.05304413       2.00732111
Ag      -2.02350499      -2.02350499       0.00000000
Ag      -3.97579006      -3.97579014       3.97579014
Ag      -2.00732108      -2.00732111       4.05304413
Ag      -3.99351511       0.00000001      -3.99351514
Ag      -4.05304417       2.00732112      -2.00732113
Ag      -2.02350500      -0.00000000      -2.02350500
Ag      -2.00732108       2.00732112      -4.05304416
Ag      -4.06465389      -0.00000001       0.00000000
Ag      -4.05304421       2.00732113       2.00732113
Ag      -2.02350500      -0.00000000       2.02350499
Ag      -2.02350500       2.02350500      -0.00000000
Ag      -3.99351510      -0.00000004       3.99351513
Ag      -2.00732111       2.00732111       4.05304422
Ag      -3.97579011       3.97579020      -3.97579020
Ag      -2.00732108       4.05304416      -2.00732112
Ag      -3.99351513       3.99351517      -0.00000002
Ag      -2.00732110       4.05304423       2.00732112
Ag      -3.97579021       3.97579027       3.97579027
Ag       0.00000000      -3.99351516      -3.99351517
Ag      -0.00000003      -2.02350500      -2.02350500
Ag       2.00732112      -4.05304416      -2.00732110
Ag       2.00732112      -2.00732109      -4.05304415
Ag      -0.00000004      -4.06465384       0.00000002
Ag      -0.00000003      -2.02350498       2.02350498
Ag       2.00732110      -4.05304410       2.00732110
Ag       2.02350500      -2.02350500       0.00000000
Ag      -0.00000000      -3.99351504       3.99351504
Ag       2.00732110      -2.00732109       4.05304410
Ag      -0.00000003       0.00000002      -4.06465384
Ag      -0.00000002       2.02350498      -2.02350498
Ag       2.02350499       0.00000000      -2.02350499
Ag       2.00732110       2.00732109      -4.05304406
Ag      -0.00000004      -0.00000000       0.00000000
Ag      -0.00000002       2.02350500       2.02350500
Ag       2.02350499      -0.00000000       2.02350500
Ag       2.02350499       2.02350499      -0.00000000
Ag      -0.00000003      -0.00000002       4.06465384
Ag       2.00732112       2.00732109       4.05304414
Ag       0.00000003       3.99351504      -3.99351504
Ag       2.00732110       4.05304406      -2.00732108
Ag      -0.00000002       4.06465384      -0.00000002
Ag       2.00732112       4.05304413       2.00732108
Ag       0.00000002       3.99351517       3.99351516
Ag       3.97579025      -3.97579016      -3.97579018
Ag       4.05304415      -2.00732108      -2.00732109
Ag       3.99351514      -3.99351511       0.00000002
Ag       4.05304412      -2.00732108       2.00732108
Ag       3.97579016      -3.97579010       3.97579011
Ag       3.99351510       0.00000004      -3.99351507
Ag       4.05304407       2.00732107      -2.00732107
Ag       4.06465379       0.00000001      -0.00000000
Ag       4.05304413       2.00732108       2.00732107
Ag       3.99351512      -0.00000001       3.99351508
Ag       3.97579010       3.97579004      -3.97579004
Ag       3.99351507       3.99351504      -0.00000003
Ag       3.97579022       3.97579014       3.97579013
