666
Properties=species:S:1:pos:R:3 Geometry=T Step:=T 59=T pbc="F F F"
Ag       0.21954717       0.21954746       0.21954783
Ag       0.20293593       0.20293612       4.19764417
Ag       0.19553350       0.19553366       8.23393293
Ag       0.19553364       0.19553377      12.28784867
Ag       0.20293636       0.20293649      16.32413763
Ag       0.21954776       0.21954798      20.30223396
Ag       0.20293599       4.19764411       0.20293643
Ag       0.13690647       4.20314903       4.20314903
Ag       0.11905306       4.19069807       8.23761912
Ag       0.11905313       4.19069799      12.28416231
Ag       0.13690675       4.20314895      16.31863255
Ag       0.20293635       4.19764423      20.31884530
Ag       0.19553364       8.23393296       0.19553391
Ag       0.11905316       8.23761914       4.19069805
Ag       0.09681513       8.23661605       8.23661605
Ag       0.09681489       8.23661591      12.28516496
Ag       0.11905276       8.23761886      16.33108329
Ag       0.19553342       8.23393284      20.32624825
Ag       0.19553368      12.28784860       0.19553394
Ag       0.11905314      12.28416220       4.19069799
Ag       0.09681480      12.28516484       8.23661594
Ag       0.09681422      12.28516470      12.28516479
Ag       0.11905197      12.28416188      16.33108325
Ag       0.19553289      12.28784835      20.32624880
Ag       0.20293619      16.32413753       0.20293662
Ag       0.13690654      16.31863245       4.20314901
Ag       0.11905244      16.33108322       8.23761891
Ag       0.11905176      16.33108321      12.28416193
Ag       0.13690512      16.31863229      16.31863233
Ag       0.20293529      16.32413728      20.31884648
Ag       0.21954744      20.30223408       0.21954819
Ag       0.20293601      20.31884558       4.19764434
Ag       0.19553305      20.32624860       8.23393287
Ag       0.19553264      20.32624908      12.28784836
Ag       0.20293521      20.31884658      16.32413734
Ag       0.21954723      20.30223456      20.30223470
Ag       4.19764386       0.20293679       0.20293686
Ag       4.20314912       0.13690757       4.20314904
Ag       4.19069832       0.11905432       8.23761915
Ag       4.19069830       0.11905444      12.28416231
Ag       4.20314917       0.13690794      16.31863252
Ag       4.19764410       0.20293719      20.31884470
Ag       4.20314904       4.20314905       0.13690778
Ag       4.20379032       4.20378988       4.20378976
Ag       4.19029410       4.19029345       8.24458670
Ag       4.19029409       4.19029337      12.27719466
Ag       4.20379037       4.20378979      16.31799160
Ag       4.20314931       4.20314918      20.38487364
Ag       4.19069829       8.23761917       0.11905464
Ag       4.19029410       8.24458673       4.19029332
Ag       4.17286468       8.24102201       8.24102201
Ag       4.17286472       8.24102186      12.28075893
Ag       4.19029427       8.24458642      16.33148779
Ag       4.19069868       8.23761905      20.40272722
Ag       4.19069827      12.28416223       0.11905466
Ag       4.19029405      12.27719453       4.19029323
Ag       4.17286468      12.28075876       8.24102187
Ag       4.17286481      12.28075859      12.28075873
Ag       4.19029443      12.27719411      16.33148772
Ag       4.19069885      12.28416192      20.40272782
Ag       4.20314907      16.31863246       0.13690796
Ag       4.20379028      16.31799156       4.20378965
Ag       4.19029418      16.33148775       8.24458644
Ag       4.19029438      16.33148768      12.27719420
Ag       4.20379084      16.31799127      16.31799133
Ag       4.20314986      16.31863207      20.38487487
Ag       4.19764406      20.31884483       0.20293709
Ag       4.20314931      20.38487402       4.20314916
Ag       4.19069867      20.40272778       8.23761907
Ag       4.19069885      20.40272829      12.28416196
Ag       4.20314986      20.38487506      16.31863217
Ag       4.19764483      20.31884542      20.31884551
Ag       8.23393277       0.19553491       0.19553487
Ag       8.23761912       0.11905525       4.19069807
Ag       8.23661622       0.09681766       8.23661611
Ag       8.23661617       0.09681759      12.28516503
Ag       8.23761901       0.11905521      16.33108329
Ag       8.23393279       0.19553502      20.32624689
Ag       8.23761908       4.19069817       0.11905541
Ag       8.24458689       4.19029360       4.19029344
Ag       8.24102239       4.17286396       8.24102207
Ag       8.24102234       4.17286395      12.28075900
Ag       8.24458679       4.19029368      16.33148769
Ag       8.23761917       4.19069844      20.40272610
Ag       8.23661618       8.23661613       0.09681800
Ag       8.24102237       8.24102207       4.17286381
Ag       8.23693076       8.23693025       8.23693026
Ag       8.23693089       8.23693025      12.28485059
Ag       8.24102268       8.24102213      16.34891712
Ag       8.23661663       8.23661633      20.42496343
Ag       8.23661613      12.28516492       0.09681781
Ag       8.24102232      12.28075882       4.17286379
Ag       8.23693087      12.28485039       8.23693028
Ag       8.23693123      12.28485037      12.28485055
Ag       8.24102311      12.28075872      16.34891707
Ag       8.23661700      12.28516488      20.42496357
Ag       8.23761899      16.33108317       0.11905511
Ag       8.24458678      16.33148762       4.19029348
Ag       8.24102266      16.34891704       8.24102216
Ag       8.24102311      16.34891698      12.28075886
Ag       8.24458777      16.33148736      16.33148746
Ag       8.23762002      16.33108282      20.40272626
Ag       8.23393284      20.32624707       0.19553475
Ag       8.23761922      20.40272660       4.19069839
Ag       8.23661669      20.42496410       8.23661637
Ag       8.23661704      20.42496412      12.28516494
Ag       8.23762004      20.40272650      16.33108289
Ag       8.23393369      20.32624666      20.32624670
Ag      12.28784845       0.19553484       0.19553485
Ag      12.28416198       0.11905511       4.19069798
Ag      12.28516474       0.09681727       8.23661600
Ag      12.28516466       0.09681700      12.28516501
Ag      12.28416177       0.11905464      16.33108332
Ag      12.28784829       0.19553470      20.32624723
Ag      12.28416198       4.19069804       0.11905526
Ag      12.27719412       4.19029343       4.19029329
Ag      12.28075841       4.17286385       8.24102196
Ag      12.28075832       4.17286397      12.28075897
Ag      12.27719386       4.19029379      16.33148773
Ag      12.28416183       4.19069860      20.40272645
Ag      12.28516469       8.23661599       0.09681754
Ag      12.28075838       8.24102194       4.17286371
Ag      12.28484999       8.23693028       8.23693033
Ag      12.28485008       8.23693052      12.28485075
Ag      12.28075850       8.24102251      16.34891720
Ag      12.28516488       8.23661664      20.42496334
Ag      12.28516457      12.28516489       0.09681712
Ag      12.28075825      12.28075877       4.17286381
Ag      12.28485004      12.28485053       8.23693058
Ag      12.28485035      12.28485071      12.28485092
Ag      12.28075886      12.28075913      16.34891716
Ag      12.28516516      12.28516523      20.42496280
Ag      12.28416170      16.33108322       0.11905444
Ag      12.27719379      16.33148766       4.19029360
Ag      12.28075847      16.34891711       8.24102256
Ag      12.28075887      16.34891705      12.28075930
Ag      12.27719460      16.33148742      16.33148754
Ag      12.28416240      16.33108283      20.40272508
Ag      12.28784828      20.32624752       0.19553441
Ag      12.28416181      20.40272702       4.19069857
Ag      12.28516490      20.42496405       8.23661670
Ag      12.28516522      20.42496335      12.28516530
Ag      12.28416245      20.40272530      16.33108290
Ag      12.28784876      20.32624568      20.32624570
Ag      16.32413731       0.20293668       0.20293685
Ag      16.31863212       0.13690731       4.20314881
Ag      16.33108289       0.11905353       8.23761891
Ag      16.33108285       0.11905321      12.28416223
Ag      16.31863191       0.13690670      16.31863259
Ag      16.32413700       0.20293654      20.31884550
Ag      16.31863215       4.20314875       0.13690747
Ag      16.31799091       4.20378954       4.20378944
Ag      16.33148704       4.19029327       8.24458645
Ag      16.33148695       4.19029348      12.27719455
Ag      16.31799057       4.20379012      16.31799163
Ag      16.31863171       4.20314957      20.38487442
Ag      16.33108284       8.23761888       0.11905369
Ag      16.33148703       8.24458643       4.19029315
Ag      16.34891643       8.24102210       8.24102216
Ag      16.34891637       8.24102246      12.28075920
Ag      16.33148676       8.24458726      16.33148787
Ag      16.33108248       8.23761976      20.40272692
Ag      16.33108277      12.28416213       0.11905319
Ag      16.33148694      12.27719438       4.19029333
Ag      16.34891638      12.28075900       8.24102254
Ag      16.34891636      12.28075929      12.28075947
Ag      16.33148678      12.27719499      16.33148784
Ag      16.33108247      12.28416263      20.40272598
Ag      16.31863188      16.31863253       0.13690647
Ag      16.31799060      16.31799154       4.20378997
Ag      16.33148682      16.33148779       8.24458731
Ag      16.33148682      16.33148773      12.27719513
Ag      16.31799051      16.31799134      16.31799147
Ag      16.31863157      16.31863210      20.38487216
Ag      16.32413701      20.31884581       0.20293633
Ag      16.31863176      20.38487494       4.20314956
Ag      16.33108254      20.40272756       8.23761980
Ag      16.33108255      20.40272644      12.28416270
Ag      16.31863167      20.38487230      16.31863222
Ag      16.32413668      20.31884310      20.31884320
Ag      20.30223409       0.21954739       0.21954775
Ag      20.31884559       0.20293584       4.19764401
Ag      20.32624844       0.19553302       8.23393280
Ag      20.32624864       0.19553289      12.28784867
Ag      20.31884593       0.20293567      16.32413772
Ag      20.30223400       0.21954769      20.30223461
Ag      20.31884551       4.19764390       0.20293602
Ag      20.38487533       4.20314877       4.20314876
Ag      20.40272920       4.19069797       8.23761901
Ag      20.40272933       4.19069818      12.28416236
Ag      20.38487551       4.20314937      16.31863266
Ag      20.31884527       4.19764473      20.31884584
Ag      20.32624836       8.23393280       0.19553307
Ag      20.40272917       8.23761901       4.19069794
Ag      20.42496720       8.23661626       8.23661630
Ag      20.42496689       8.23661656      12.28516535
Ag      20.40272832       8.23761972      16.33108343
Ag      20.32624722       8.23393358      20.32624773
Ag      20.32624868      12.28784865       0.19553277
Ag      20.40272948      12.28416226       4.19069815
Ag      20.42496708      12.28516525       8.23661663
Ag      20.42496620      12.28516549      12.28516556
Ag      20.40272733      12.28416274      16.33108336
Ag      20.32624644      12.28784900      20.32624694
Ag      20.31884618      16.32413764       0.20293546
Ag      20.38487592      16.31863252       4.20314937
Ag      20.40272880      16.33108333       8.23761977
Ag      20.40272762      16.33108327      12.28416279
Ag      20.38487314      16.31863231      16.31863242
Ag      20.31884337      16.32413719      20.31884391
Ag      20.30223436      20.30223468       0.21954766
Ag      20.31884578      20.31884612       4.19764482
Ag      20.32624772      20.32624807       8.23393361
Ag      20.32624680      20.32624712      12.28784898
Ag      20.31884352      20.31884383      16.32413729
Ag      20.30223208      20.30223235      20.30223266
Ag       0.15644132       2.19177600       2.19177611
Ag       0.13886249       2.17611567       6.21656831
Ag       0.13540841       2.16939309      10.26089076
Ag       0.13886274       2.17611576      14.30521328
Ag       0.15644173       2.19177631      18.33000546
Ag       0.13886265       6.21656836       2.17611572
Ag       0.11103816       6.21703263       6.21703261
Ag       0.10340585       6.21098605      10.26089059
Ag       0.11103808       6.21703246      14.30474868
Ag       0.13886263       6.21656826      18.34566577
Ag       0.13540860      10.26089076       2.16939306
Ag       0.10340586      10.26089055       6.21098605
Ag       0.09258944      10.26089033      10.26089039
Ag       0.10340514      10.26089028      14.31079496
Ag       0.13540783      10.26089047      18.35238850
Ag       0.13886274      14.30521314       2.17611573
Ag       0.11103787      14.30474851       6.21703252
Ag       0.10340495      14.31079482      10.26089033
Ag       0.11103671      14.30474835      14.30474843
Ag       0.13886146      14.30521288      18.34566600
Ag       0.15644158      18.33000546       2.19177636
Ag       0.13886229      18.34566581       6.21656832
Ag       0.13540749      18.35238850      10.26089048
Ag       0.13886128      18.34566597      14.30521292
Ag       0.15644054      18.33000546      18.33000554
Ag       4.21271716       2.17941302       2.17941299
Ag       4.20380115       2.15356130       6.22720683
Ag       4.19521086       2.14354585      10.26089071
Ag       4.20380116       2.15356149      14.29457457
Ag       4.21271734       2.17941343      18.34236822
Ag       4.20380114       6.22720692       2.15356126
Ag       4.18847115       6.22429807       6.22429801
Ag       4.17821801       6.21869195      10.26089057
Ag       4.18847120       6.22429792      14.29748314
Ag       4.20380136       6.22720685      18.36821987
Ag       4.19521086      10.26089070       2.14354577
Ag       4.17821800      10.26089050       6.21869189
Ag       4.16675543      10.26089028      10.26089035
Ag       4.17821817      10.26089019      14.30308895
Ag       4.19521124      10.26089038      18.37823550
Ag       4.20380109      14.29457443       2.15356135
Ag       4.18847112      14.29748295       6.22429789
Ag       4.17821811      14.30308877      10.26089026
Ag       4.18847145      14.29748270      14.29748285
Ag       4.20380169      14.29457407      18.36822014
Ag       4.21271725      18.34236819       2.17941331
Ag       4.20380127      18.36821983       6.22720681
Ag       4.19521116      18.37823539      10.26089039
Ag       4.20380165      18.36822001      14.29457416
Ag       4.21271793      18.34236823      18.34236836
Ag       8.23830543       2.16446336       2.16446325
Ag       8.24164506       2.13085078       6.22050794
Ag       8.23911750       2.11959000      10.26089054
Ag       8.24164497       2.13085087      14.30127320
Ag       8.23830541       2.16446364      18.35731800
Ag       8.24164503       6.22050805       2.13085070
Ag       8.24307393       6.21537320       6.21537314
Ag       8.23992438       6.20816055      10.26089046
Ag       8.24307401       6.21537326      14.30640783
Ag       8.24164520       6.22050824      18.39093038
Ag       8.23911748      10.26089051       2.11958990
Ag       8.23992437      10.26089037       6.20816050
Ag       8.23600466      10.26089031      10.26089039
Ag       8.23992482      10.26089036      14.31362034
Ag       8.23911809      10.26089054      18.40219116
Ag       8.24164493      14.30127301       2.13085070
Ag       8.24307397      14.30640759       6.21537323
Ag       8.23992479      14.31362012      10.26089045
Ag       8.24307473      14.30640750      14.30640770
Ag       8.24164591      14.30127283      18.39093041
Ag       8.23830541      18.35731791       2.16446345
Ag       8.24164520      18.39093026       6.22050819
Ag       8.23911809      18.40219094      10.26089058
Ag       8.24164591      18.39093020      14.30127297
Ag       8.23830632      18.35731768      18.35731784
Ag      12.28347559       2.16446341       2.16446332
Ag      12.28013587       2.13085076       6.22050783
Ag      12.28266330       2.11958991      10.26089046
Ag      12.28013570       2.13085079      14.30127321
Ag      12.28347539       2.16446364      18.35731809
Ag      12.28013585       6.22050791       2.13085068
Ag      12.27870679       6.21537309       6.21537307
Ag      12.28185635       6.20816060      10.26089048
Ag      12.27870676       6.21537347      14.30640791
Ag      12.28013580       6.22050849      18.39093047
Ag      12.28266324      10.26089040       2.11958980
Ag      12.28185631      10.26089035       6.20816059
Ag      12.28577640      10.26089052      10.26089063
Ag      12.28185665      10.26089076      14.31362055
Ag      12.28266362      10.26089093      18.40219111
Ag      12.28013562      14.30127301       2.13085060
Ag      12.27870670      14.30640767       6.21537347
Ag      12.28185662      14.31362033      10.26089089
Ag      12.27870734      14.30640779      14.30640801
Ag      12.28013634      14.30127308      18.39093017
Ag      12.28347535      18.35731802       2.16446345
Ag      12.28013578      18.39093034       6.22050846
Ag      12.28266365      18.40219087      10.26089099
Ag      12.28013638      18.39092993      14.30127324
Ag      12.28347598      18.35731735      18.35731752
Ag      16.30906399       2.17941322       2.17941323
Ag      16.31798003       2.15356135       6.22720659
Ag      16.32657024       2.14354576      10.26089050
Ag      16.31797987       2.15356139      14.29457455
Ag      16.30906366       2.17941349      18.34236842
Ag      16.31798001       6.22720663       2.15356128
Ag      16.33330998       6.22429787       6.22429786
Ag      16.34356308       6.21869211      10.26089056
Ag      16.33330981       6.22429843      14.29748326
Ag      16.31797965       6.22720745      18.36822001
Ag      16.32657020      10.26089046       2.14354562
Ag      16.34356308      10.26089045       6.21869212
Ag      16.35502569      10.26089074      10.26089086
Ag      16.34356297      10.26089108      14.30308934
Ag      16.32656992      10.26089123      18.37823530
Ag      16.31797985      14.29457439       2.15356118
Ag      16.33330985      14.29748305       6.22429844
Ag      16.34356300      14.30308915      10.26089120
Ag      16.33330979      14.29748329      14.29748348
Ag      16.31797962      14.29457457      18.36821953
Ag      16.30906370      18.34236839       2.17941333
Ag      16.31797974      18.36821994       6.22720742
Ag      16.32657001      18.37823512      10.26089127
Ag      16.31797970      18.36821931      14.29457471
Ag      16.30906344      18.34236744      18.34236764
Ag      20.36534024       2.19177609       2.19177618
Ag      20.38291942       2.17611563       6.21656814
Ag      20.38637392       2.16939306      10.26089067
Ag      20.38291976       2.17611584      14.30521334
Ag      20.36534045       2.19177660      18.33000560
Ag      20.38291931       6.21656816       2.17611560
Ag      20.41074414       6.21703255       6.21703256
Ag      20.41837650       6.21098630      10.26089073
Ag      20.41074397       6.21703304      14.30474892
Ag      20.38291888       6.21656894      18.34566583
Ag      20.38637384      10.26089067       2.16939292
Ag      20.41837659      10.26089068       6.21098635
Ag      20.42919223      10.26089091      10.26089097
Ag      20.41837543      10.26089120      14.31079540
Ag      20.38637217      10.26089133      18.35238820
Ag      20.38291991      14.30521322       2.17611567
Ag      20.41074436      14.30474876       6.21703311
Ag      20.41837572      14.31079529      10.26089125
Ag      20.41074232      14.30474894      14.30474905
Ag      20.38291715      14.30521332      18.34566537
Ag      20.36534074      18.33000553       2.19177654
Ag      20.38291941      18.34566578       6.21656898
Ag      20.38637264      18.35238810      10.26089133
Ag      20.38291739      18.34566521      14.30521337
Ag      20.36533796      18.33000463      18.33000484
Ag       2.19177605       0.15644182       2.19177608
Ag       2.17611586       0.13886300       6.21656832
Ag       2.16939336       0.13540893      10.26089077
Ag       2.17611603       0.13886324      14.30521327
Ag       2.19177647       0.15644221      18.33000547
Ag       2.17941347       4.21271688       2.17941301
Ag       2.15356207       4.20380057       6.22720677
Ag       2.14354679       4.19521011      10.26089070
Ag       2.15356232       4.20380046      14.29457462
Ag       2.17941398       4.21271692      18.34236821
Ag       2.16446401       8.23830540       2.16446326
Ag       2.13085186       8.24164480       6.22050778
Ag       2.11959129       8.23911703      10.26089047
Ag       2.13085196       8.24164455      14.30127327
Ag       2.16446431       8.23830521      18.35731803
Ag       2.16446407      12.28347606       2.16446330
Ag       2.13085187      12.28013629       6.22050770
Ag       2.11959122      12.28266365      10.26089030
Ag       2.13085182      12.28013601      14.30127313
Ag       2.16446420      12.28347574      18.35731819
Ag       2.17941375      16.30906465       2.17941326
Ag       2.15356223      16.31798078       6.22720667
Ag       2.14354677      16.32657107      10.26089032
Ag       2.15356214      16.31798066      14.29457423
Ag       2.17941387      16.30906438      18.34236848
Ag       2.19177634      20.36533967       2.19177637
Ag       2.17611609      20.38291886       6.21656839
Ag       2.16939353      20.38637359      10.26089052
Ag       2.17611615      20.38291982      14.30521289
Ag       2.19177671      20.36534069      18.33000548
Ag       6.21656833       0.13886413       2.17611560
Ag       6.21703278       0.11104001       6.21703264
Ag       6.21098636       0.10340793      10.26089063
Ag       6.21703275       0.11104010      14.30474870
Ag       6.21656839       0.13886433      18.34566583
Ag       6.22720719       4.20380079       2.15356123
Ag       6.22429862       4.18847055       6.22429806
Ag       6.21869268       4.17821726      10.26089060
Ag       6.22429862       4.18847049      14.29748313
Ag       6.22720732       4.20380087      18.36821988
Ag       6.22050848       8.24164489       2.13085071
Ag       6.21537390       8.24307360       6.21537310
Ag       6.20816143       8.23992385      10.26089041
Ag       6.21537412       8.24307347      14.30640780
Ag       6.22050887       8.24164483      18.39093040
Ag       6.22050846      12.28013628       2.13085071
Ag       6.21537393      12.27870722       6.21537306
Ag       6.20816161      12.28185667      10.26089030
Ag       6.21537444      12.27870701      14.30640769
Ag       6.22050919      12.28013603      18.39093051
Ag       6.22720719      16.31798058       2.15356138
Ag       6.22429874      16.33331063       6.22429805
Ag       6.21869315      16.34356374      10.26089035
Ag       6.22429938      16.33331048      14.29748280
Ag       6.22720810      16.31798027      18.36822002
Ag       6.21656851      20.38291756       2.17611584
Ag       6.21703313      20.41074184       6.21703284
Ag       6.21098703      20.41837424      10.26089053
Ag       6.21703367      20.41074236      14.30474835
Ag       6.21656932      20.38291802      18.34566568
Ag      10.26089059       0.13541052       2.16939297
Ag      10.26089050       0.10340835       6.21098607
Ag      10.26089044       0.09259236      10.26089050
Ag      10.26089037       0.10340808      14.31079509
Ag      10.26089044       0.13541031      18.35238850
Ag      10.26089051       4.19521043       2.14354573
Ag      10.26089043       4.17821732       6.21869198
Ag      10.26089036       4.16675459      10.26089048
Ag      10.26089030       4.17821744      14.30308902
Ag      10.26089039       4.19521075      18.37823546
Ag      10.26089039       8.23911721       2.11958989
Ag      10.26089033       8.23992392       6.20816051
Ag      10.26089042       8.23600402      10.26089046
Ag      10.26089054       8.23992415      14.31362042
Ag      10.26089068       8.23911758      18.40219115
Ag      10.26089029      12.28266368       2.11958985
Ag      10.26089031      12.28185678       6.20816063
Ag      10.26089064      12.28577676      10.26089057
Ag      10.26089095      12.28185690      14.31362042
Ag      10.26089107      12.28266383      18.40219109
Ag      10.26089027      16.32657080       2.14354579
Ag      10.26089037      16.34356371       6.21869234
Ag      10.26089082      16.35502635      10.26089072
Ag      10.26089118      16.34356357      14.30308894
Ag      10.26089123      16.32657048      18.37823520
Ag      10.26089050      20.38637156       2.16939324
Ag      10.26089063      20.41837346       6.21098663
Ag      10.26089102      20.42918890      10.26089083
Ag      10.26089128      20.41837278      14.31079492
Ag      10.26089129      20.38637051      18.35238796
Ag      14.30521279       0.13886396       2.17611565
Ag      14.30474828       0.11103954       6.21703245
Ag      14.31079464       0.10340704      10.26089050
Ag      14.30474816       0.11103902      14.30474873
Ag      14.30521256       0.13886350      18.34566596
Ag      14.29457387       4.20380054       2.15356132
Ag      14.29748238       4.18847031       6.22429785
Ag      14.30308821       4.17821720      10.26089046
Ag      14.29748220       4.18847065      14.29748316
Ag      14.29457359       4.20380115      18.36822005
Ag      14.30127243       8.24164466       2.13085061
Ag      14.30640697       8.24307350       6.21537311
Ag      14.31361955       8.23992413      10.26089063
Ag      14.30640701       8.24307408      14.30640804
Ag      14.30127240       8.24164544      18.39093041
Ag      14.30127232      12.28013618       2.13085054
Ag      14.30640691      12.27870727       6.21537339
Ag      14.31361963      12.28185708      10.26089094
Ag      14.30640720      12.27870770      14.30640816
Ag      14.30127258      12.28013665      18.39093020
Ag      14.29457354      16.31798063       2.15356128
Ag      14.29748215      16.33331070       6.22429854
Ag      14.30308829      16.34356382      10.26089116
Ag      14.29748254      16.33331055      14.29748334
Ag      14.29457390      16.31798029      18.36821944
Ag      14.30521250      20.38291844       2.17611596
Ag      14.30474809      20.41074225       6.21703330
Ag      14.31079469      20.41837345      10.26089119
Ag      14.30474842      20.41074042      14.30474877
Ag      14.30521275      20.38291595      18.34566513
Ag      18.33000495       0.15644156       2.19177620
Ag      18.34566534       0.13886244       6.21656813
Ag      18.35238797       0.13540794      10.26089062
Ag      18.34566536       0.13886203      14.30521329
Ag      18.33000478       0.15644128      18.33000562
Ag      18.34236744       4.21271666       2.17941321
Ag      18.36821913       4.20380038       6.22720659
Ag      18.37823465       4.19521019      10.26089058
Ag      18.36821915       4.20380080      14.29457464
Ag      18.34236728       4.21271737      18.34236838
Ag      18.35731718       8.23830522       2.16446328
Ag      18.39092964       8.24164478       6.22050790
Ag      18.40219033       8.23911746      10.26089076
Ag      18.39092946       8.24164537      14.30127351
Ag      18.35731680       8.23830601      18.35731794
Ag      18.35731728      12.28347599       2.16446323
Ag      18.39092968      12.28013637       6.22050820
Ag      18.40219023      12.28266415      10.26089108
Ag      18.39092925      12.28013682      14.30127363
Ag      18.35731658      12.28347645      18.35731769
Ag      18.34236756      16.30906466       2.17941324
Ag      18.36821912      16.31798079       6.22720734
Ag      18.37823431      16.32657106      10.26089129
Ag      18.36821854      16.31798064      14.29457482
Ag      18.34236667      16.30906429      18.34236772
Ag      18.33000482      20.36534069       2.19177660
Ag      18.34566505      20.38291920       6.21656902
Ag      18.35238736      20.38637238      10.26089131
Ag      18.34566455      20.38291720      14.30521331
Ag      18.33000402      20.36533793      18.33000479
Ag       2.19177596       2.19177596       0.15644204
Ag       2.17941349       2.17941299       4.21271683
Ag       2.16446402       2.16446330       8.23830533
Ag       2.16446415       2.16446339      12.28347613
Ag       2.17941391       2.17941333      16.30906470
Ag       2.19177651       2.19177639      20.36533956
Ag       2.17611581       6.21656836       0.13886332
Ag       2.15356208       6.22720685       4.20380049
Ag       2.13085188       6.22050784       8.24164477
Ag       2.13085195       6.22050774      12.28013641
Ag       2.15356237       6.22720668      16.31798083
Ag       2.17611622       6.21656836      20.38291846
Ag       2.16939330      10.26089077       0.13540925
Ag       2.14354676      10.26089068       4.19521000
Ag       2.11959127      10.26089043       8.23911701
Ag       2.11959125      10.26089026      12.28266378
Ag       2.14354684      10.26089031      16.32657111
Ag       2.16939360      10.26089052      20.38637314
Ag       2.17611586      14.30521316       0.13886344
Ag       2.15356219      14.29457447       4.20380038
Ag       2.13085186      14.30127310       8.24164456
Ag       2.13085179      14.30127300      12.28013610
Ag       2.15356214      14.29457416      16.31798071
Ag       2.17611616      14.30521284      20.38291954
Ag       2.19177621      18.33000553       0.15644236
Ag       2.17941382      18.34236820       4.21271686
Ag       2.16446420      18.35731798       8.23830517
Ag       2.16446416      18.35731811      12.28347576
Ag       2.17941387      18.34236838      16.30906445
Ag       2.19177672      18.33000533      20.36534069
Ag       6.21656830       2.17611565       0.13886420
Ag       6.22720721       2.15356131       4.20380066
Ag       6.22050848       2.13085079       8.24164486
Ag       6.22050846       2.13085084      12.28013639
Ag       6.22720721       2.15356155      16.31798066
Ag       6.21656846       2.17611600      20.38291733
Ag       6.21703273       6.21703268       0.11104030
Ag       6.22429862       6.22429813       4.18847042