864
Properties=species:S:1:pos:R:3 Geometry=T Step:=T 74=T pbc="F F F"
Ag       0.23574931       0.23574995       0.23575027
Ag       0.17213290       2.20759026       2.20759052
Ag       2.20758974       0.17213330       2.20759034
Ag       2.20758963       2.20759000       0.17213349
Ag       0.21907303       0.21907341       4.21267628
Ag       0.22843806       0.22843840      20.35621322
Ag       4.21267542       0.21907315       0.21907344
Ag      20.35621340       0.22843565       0.22843617
Ag       0.21907276       4.21267597       0.21907352
Ag       0.22843471      20.35621329       0.22843596
Ag       0.15425335       2.19145972       6.23241857
Ag       0.22843830       2.21774798      22.34552235
Ag       4.22906141       2.19577820       2.19577840
Ag      20.36497095       2.20898872       2.20898871
Ag       0.15425293       6.23241813       2.19145997
Ag       0.22843483      22.34552475       2.21774758
Ag       2.19145935       0.15425343       6.23241839
Ag       2.21774762       0.22843855      22.34552247
Ag       6.23241771       0.15425325       2.19145961
Ag      22.34552377       0.22843522       2.21774576
Ag       2.19577795       4.22906164       2.19577851
Ag       2.20898915      20.36497093       2.20898982
Ag       2.19577803       2.19577834       4.22906199
Ag       2.20899068       2.20899117      20.36496966
Ag       6.23241761       2.19145927       0.15425338
Ag      22.34552385       2.21774518       0.22843557
Ag       2.19145909       6.23241789       0.15425323
Ag       2.21774611      22.34552511       0.22843569
Ag       0.20902568       0.20902577       8.24746482
Ag       0.21359902       0.21359919      16.34452297
Ag       8.24746407       0.20902502       0.20902520
Ag      16.34452211       0.21359658       0.21359695
Ag       0.20902472       8.24746453       0.20902523
Ag       0.21359586      16.34452248       0.21359672
Ag       0.14705430       2.18191867      10.27316948
Ag       0.16351151       2.20320898      18.34866379
Ag       8.25322297       2.17853074       2.17853073
Ag      16.33056536       2.18590629       2.18590618
Ag       0.14705285      10.27316896       2.18191863
Ag       0.16350759      18.34866324       2.20320832
Ag       2.18191847       0.14705416      10.27316941
Ag       2.20320857       0.16351166      18.34866398
Ag      10.27316874       0.14705323       2.18191798
Ag      18.34866350       0.16350894       2.20320721
Ag       2.17853073       8.25322317       2.17853106
Ag       2.18590660      16.33056509       2.18590702
Ag       2.17853104       2.17853124       8.25322376
Ag       2.18590783       2.18590826      16.33056570
Ag      10.27316868       2.18191771       0.14705329
Ag      18.34866365       2.20320680       0.16350923
Ag       2.18191788      10.27316884       0.14705290
Ag       2.20320715      18.34866361       0.16350811
Ag       0.20761649       0.20761647      12.29893582
Ag      12.29893520       0.20761501       0.20761523
Ag       0.20761446      12.29893545       0.20761498
Ag       0.14913918       2.18540744      14.32076072
Ag      12.29741177       2.17567218       2.17567202
Ag       0.14913632      14.32076015       2.18540709
Ag       2.18540714       0.14913909      14.32076082
Ag      14.32076002       0.14913707       2.18540607
Ag       2.17567245      12.29741183       2.17567264
Ag       2.17567317       2.17567339      12.29741253
Ag      14.32076008       2.18540578       0.14913719
Ag       2.18540618      14.32076028       0.14913643
Ag       0.15413274       4.21899515       4.21899571
Ag       0.17213441      20.36636914      20.36636958
Ag       0.16350772      20.37075231       4.22529753
Ag       0.16351179       4.22529723      20.37075169
Ag       4.21899471       0.15413290       4.21899534
Ag      20.36636895       0.17213347      20.36637064
Ag       4.22529683       0.16351192      20.37075184
Ag      20.37075265       0.16350856       4.22529595
Ag       4.21899458       4.21899476       0.15413295
Ag      20.36637087      20.36637177       0.17213375
Ag      20.37075304       4.22529552       0.16350902
Ag       4.22529623      20.37075304       0.16350816
Ag       0.12628838       6.23309019       6.23309080
Ag       0.23575069      22.33820895      22.33820947
Ag       0.21359623      22.36036352       6.22943843
Ag       0.21359984       6.22943831      22.36036082
Ag       4.21993527       2.16947688       6.24415910
Ag      20.36636878       2.20759023      22.40182723
Ag       4.22529700       2.20320924      22.41044864
Ag      20.38805395       2.18590578       6.24339433
Ag       4.21993535       6.24415844       2.16947686
Ag      20.36637073      22.40182687       2.20758901
Ag      20.38805437       6.24339426       2.18590533
Ag       4.22529637      22.41045241       2.20320780
Ag       2.16947678       4.21993544       6.24415924
Ag       2.20759063      20.36636915      22.40182582
Ag       2.18590679      20.38805343       6.24339573
Ag       2.20320892       4.22529724      22.41044860
Ag       6.23308963       0.12628821       6.23309031
Ag      22.33820900       0.23574979      22.33821116
Ag       6.22943787       0.21359985      22.36036106
Ag      22.36036359       0.21359532       6.22943698
Ag       6.24415840       4.21993532       2.16947677
Ag      22.40182624      20.36637194       2.20758867
Ag      22.41045112       4.22529530       2.20320623
Ag       6.24339504      20.38805409       2.18590659
Ag       2.16947669       6.24415854       4.21993595
Ag       2.20759048      22.40182561      20.36636974
Ag       2.20320734      22.41045234       4.22529731
Ag       2.18590822       6.24339530      20.38805204
Ag       6.24415839       2.16947675       4.21993565
Ag      22.40182626       2.20758970      20.36637100
Ag       6.24339495       2.18590866      20.38805207
Ag      22.41045128       2.20320621       4.22529561
Ag       6.23308939       6.23308958       0.12628795
Ag      22.33821031      22.33821154       0.23574932
Ag      22.36036372       6.22943625       0.21359564
Ag       6.22943679      22.36036438       0.21359628
Ag       0.13286578       4.20494323       8.25251386
Ag       0.15425459      20.38249970      16.34154229
Ag       0.14913690      20.38855320       8.25320067
Ag       0.14129060       4.21385705      16.33567331
Ag       8.25251283       0.13286493       4.20494309
Ag      16.34154137       0.15425434      20.38250077
Ag       8.25319987       0.14913991      20.38855298
Ag      16.33567257       0.14128706       4.21385611
Ag       4.20494264       8.25251283       0.13286471
Ag      20.38250219      16.34154313       0.15425294
Ag      20.38855495       8.25319920       0.14913678
Ag       4.21385615      16.33567299       0.14128651
Ag       4.21385642       0.14129043      16.33567355
Ag      20.38855402       0.14913613       8.25319965
Ag      20.38250026       0.15425291      16.34154338
Ag       4.20494283       0.13286555       8.25251360
Ag       0.14914019       8.25320031      20.38855276
Ag       0.14128665      16.33567258       4.21385760
Ag       0.13286488       8.25251322       4.20494377
Ag       0.15425532      16.34154158      20.38249991
Ag       8.25251268       4.20494258       0.13286495
Ag      16.34154217      20.38250260       0.15425325
Ag       8.25319951      20.38855467       0.14913663
Ag      16.33567277       4.21385557       0.14128731
Ag       0.11405037       6.22435974      10.27453202
Ag       0.21907427      22.35488554      18.36128440
Ag       0.20761525      22.36634466      10.27502529
Ag       0.14129096       6.23828768      18.36010369
Ag       8.25746544       2.14450236       6.23621782
Ag      16.34154131       2.19146020      22.41970627
Ag       8.25319997       2.18540805      22.42482057
Ag      16.33387922       2.15392760       6.24008062
Ag       4.20797761      10.27492763       2.15609521
Ag      20.37818294      18.34489966       2.19577673
Ag      20.39828924      10.27654822       2.17567042
Ag       4.22636650      18.34759394       2.18185339
Ag       4.22636640       2.18185526      18.34759417
Ag      20.39828829       2.17567140      10.27654838
Ag      20.37818118       2.19577818      18.34489950
Ag       4.20797741       2.15609588      10.27492854
Ag       0.20761793      10.27502501      22.36634283
Ag       0.14128686      18.36010305       6.23828823
Ag       0.11404912      10.27453134       6.22436033
Ag       0.21907481      18.36128369      22.35488553
Ag       8.25746553       6.23621738       2.14450194
Ag      16.34154214      22.41970726       2.19145819
Ag       8.25319962      22.42482383       2.18540608
Ag      16.33387935       6.24008046       2.15392695
Ag       2.15609584       4.20797755      10.27492859
Ag       2.19577894      20.37818086      18.34489843
Ag       2.17567291      20.39828737      10.27654899
Ag       2.18185491       4.22636671      18.34759409
Ag      10.27453107       0.11404853       6.22435955
Ag      18.36128319       0.21907415      22.35488672
Ag      10.27502479       0.20761747      22.36634339
Ag      18.36010359       0.14128681       6.23828696
Ag       6.23621753       8.25746561       2.14450211
Ag      22.41970718      16.34154333       2.19145715
Ag      22.42482348       8.25319917       2.18540418
Ag       6.24008113      16.33387907       2.15392806
Ag       6.23828704       0.14129079      18.36010402
Ag      22.36634561       0.20761325      10.27502495
Ag      22.35488630       0.21907261      18.36128591
Ag       6.22435918       0.11404976      10.27453188
Ag       2.18540787       8.25320032      22.42482032
Ag       2.15392863      16.33387877       6.24008195
Ag       2.14450254       8.25746577       6.23621834
Ag       2.19146056      16.34154171      22.41970513
Ag      10.27492759       4.20797717       2.15609476
Ag      18.34489896      20.37818335       2.19577706
Ag      10.27654832      20.39828885       2.17567167
Ag      18.34759445       4.22636570       2.18185238
Ag       2.14450266       6.23621765       8.25746661
Ag       2.19146001      22.41970566      16.34154248
Ag       2.18540652      22.42482341       8.25320068
Ag       2.15392962       6.24008121      16.33387959
Ag      10.27492755       2.15609505       4.20797725
Ag      18.34489796       2.19577878      20.37818172
Ag      10.27654789       2.17567412      20.39828652
Ag      18.34759436       2.18185271       4.22636562
Ag       6.22435889      10.27453103       0.11404830
Ag      22.35488744      18.36128603       0.21907215
Ag      22.36634602      10.27502436       0.20761339
Ag       6.23828670      18.36010392       0.14128662
Ag       6.24008067       2.15392997      16.33387979
Ag      22.42482391       2.18540458       8.25319961
Ag      22.41970716       2.19145835      16.34154366
Ag       6.23621735       2.14450265       8.25746637
Ag       2.17567397      10.27654833      20.39828638
Ag       2.18185343      18.34759374       4.22636698
Ag       2.15609543      10.27492766       4.20797798
Ag       2.19577913      18.34489789      20.37818099
Ag      10.27453097       6.22435879       0.11404842
Ag      18.36128456      22.35488791       0.21907285
Ag      10.27502436      22.36634629       0.20761431
Ag      18.36010403       6.23828633       0.14128724
Ag       0.13045730       4.20119732      12.29761477
Ag       0.14705403      20.39204129      12.30079173
Ag      12.29761393       0.13045496       4.20119679
Ag      12.30079086       0.14705522      20.39204162
Ag       4.20119672      12.29761405       0.13045455
Ag      20.39204368      12.30079150       0.14705273
Ag       4.20119692       0.13045693      12.29761486
Ag      20.39204217       0.14705225      12.30079192
Ag       0.14705599      12.30079112      20.39204115
Ag       0.13045491      12.29761402       4.20119787
Ag      12.29761394       4.20119627       0.13045504
Ag      12.30079116      20.39204357       0.14705305
Ag       0.11773111       6.22915340      14.31869211
Ag       0.20902598      22.36493397      14.32649606
Ag      12.29619061       2.13921290       6.23227755
Ag      12.30079087       2.18191934      22.42690529
Ag       4.21241220      14.31541507       2.16037426
Ag      20.39543089      14.32073757       2.17852875
Ag       4.21241195       2.16037565      14.31541595
Ag      20.39542937       2.17853021      14.32073786
Ag       0.20902753      14.32649549      22.36493313
Ag       0.11772824      14.31869140       6.22915398
Ag      12.29619073       6.23227729       2.13921221
Ag      12.30079119      22.42690737       2.18191714
Ag       2.16037542       4.21241225      14.31541584
Ag       2.17853154      20.39542856      14.32073739
Ag      14.31869117       0.11772754       6.22915290
Ag      14.32649517       0.20902694      22.36493394
Ag       6.23227781      12.29619087       2.13921293
Ag      22.42690748      12.30079161       2.18191550
Ag       6.22915268       0.11773052      14.31869245
Ag      22.36493519       0.20902372      14.32649718
Ag       2.18191948      12.30079120      22.42690459
Ag       2.13921369      12.29619075       6.23227852
Ag      14.31541508       4.21241147       2.16037336
Ag      14.32073697      20.39543084       2.17852962
Ag       2.13921419       6.23227783      12.29619172
Ag       2.18191847      22.42690633      12.30079185
Ag      14.31541501       2.16037378       4.21241142
Ag      14.32073636       2.17853202      20.39542859
Ag       6.22915239      14.31869178       0.11772745
Ag      22.36493604      14.32649679       0.20902348
Ag       6.23227744       2.13921423      12.29619179
Ag      22.42690786       2.18191635      12.30079204
Ag       2.17853215      14.32073667      20.39542818
Ag       2.16037451      14.31541494       4.21241260
Ag      14.31869133       6.22915216       0.11772768
Ag      14.32649568      22.36493612       0.20902456
Ag       0.10755534       8.25152406       8.25152466
Ag       0.12629058      16.34086956      16.34087033
Ag       0.11772862      16.34480664       8.25526940
Ag       0.11773161       8.25526884      16.34480737
Ag       8.25152353       0.10755456       8.25152417
Ag      16.34086960       0.12628845      16.34087128
Ag       8.25526812       0.11773074      16.34480782
Ag      16.34480662       0.11772727       8.25526854
Ag       8.25152327       8.25152331       0.10755392
Ag      16.34087010      16.34087091       0.12628717
Ag      16.34480699       8.25526776       0.11772743
Ag       8.25526784      16.34480743       0.11772735
Ag       0.09826314      10.27461627      10.27461688
Ag       0.15413477      18.35496425      18.35496495
Ag       0.13045588      18.37276247      10.27634675
Ag       0.13045861      10.27634607      18.37276307
Ag       8.25362372       2.12821275      10.27617215
Ag      16.32980102       2.16947725      18.35402548
Ag       8.25854459       2.16037604      18.36154851
Ag      16.34168242       2.13921256      10.27776959
Ag       8.25362399      10.27617135       2.12821157
Ag      16.32980158      18.35402570       2.16947504
Ag      16.34168262      10.27776914       2.13921115
Ag       8.25854509      18.36154855       2.16037373
Ag       2.12821308       8.25362424      10.27617234
Ag       2.16947791      16.32980080      18.35402459
Ag       2.13921405      16.34168194      10.27777016
Ag       2.16037585       8.25854517      18.36154824
Ag      10.27461595       0.09826161      10.27461662
Ag      18.35496461       0.15413347      18.35496619
Ag      10.27634570       0.13045769      18.37276365
Ag      18.37276320       0.13045434      10.27634630
Ag      10.27617127       8.25362392       2.12821130
Ag      18.35402550      16.32980199       2.16947477
Ag      18.36154907       8.25854474       2.16037252
Ag      10.27776917      16.34168257       2.13921208
Ag       2.12821291      10.27617143       8.25362504
Ag       2.16947772      18.35402406      16.32980162
Ag       2.16037476      18.36154790       8.25854598
Ag       2.13921469      10.27776922      16.34168270
Ag      10.27617108       2.12821226       8.25362448
Ag      18.35402473       2.16947667      16.32980244
Ag      10.27776864       2.13921446      16.34168314
Ag      18.36154877       2.16037337       8.25854495
Ag      10.27461579      10.27461570       0.09826068
Ag      18.35496564      18.35496632       0.15413276
Ag      18.37276391      10.27634568       0.13045463
Ag      10.27634574      18.37276388       0.13045455
Ag       0.10239630       8.24988277      12.29853526
Ag       0.11405050      16.34960012      12.29942942
Ag      12.29853439       0.10239346       8.24988263
Ag      12.29942848       0.11405015      16.34960151
Ag       8.24988188      12.29853456       0.10239319
Ag      16.34960057      12.29942889       0.11404771
Ag       8.24988217       0.10239512      12.29853543
Ag      16.34960016       0.11404813      12.29942962
Ag       0.11405195      12.29942868      16.34960086
Ag       0.10239483      12.29853456       8.24988333
Ag      12.29853441       8.24988176       0.10239323
Ag      12.29942862      16.34960118       0.11404785
Ag       0.10239689      10.27542548      14.32407801
Ag       0.13286672      18.36901635      14.32144751
Ag      12.29833283       2.12226723      10.27562736
Ag      12.29903178       2.15609641      18.36598323
Ag       8.25510890      14.31885124       2.13242990
Ag      16.33774258      14.31649472       2.14450010
Ag       8.25510845       2.13243184      14.31885204
Ag      16.33774231       2.14450218      14.31649530
Ag       0.13286789      14.32144670      18.36901695
Ag       0.10239535      14.32407731      10.27542612
Ag      12.29833307      10.27562672       2.12226574
Ag      12.29903242      18.36598344       2.15609392
Ag       2.13243192       8.25510915      14.31885179
Ag       2.14450345      16.33774188      14.31649496
Ag      14.32407711       0.10239327      10.27542577
Ag      14.32144647       0.13286638      18.36901794
Ag      10.27562670      12.29833329       2.12226609
Ag      18.36598369      12.29903259       2.15609308
Ag      10.27542510       0.10239523      14.32407849
Ag      18.36901703       0.13286467      14.32144810
Ag       2.15609680      12.29903221      18.36598262
Ag       2.12226836      12.29833315      10.27562775
Ag      14.31885099       8.25510870       2.13242899
Ag      14.31649425      16.33774287       2.14450039
Ag       2.12226855      10.27562686      12.29833408
Ag       2.15609616      18.36598222      12.29903318
Ag      14.31885080       2.13243010       8.25510909
Ag      14.31649380       2.14450284      16.33774340
Ag      10.27542498      14.32407783       0.10239301
Ag      18.36901791      14.32144760       0.13286435
Ag      10.27562633       2.12226787      12.29833411
Ag      18.36598316       2.15609458      12.29903300
Ag       2.14450366      14.31649403      16.33774265
Ag       2.13243133      14.31885089       8.25510996
Ag      14.32407731      10.27542491       0.10239293
Ag      14.32144699      18.36901827       0.13286441
Ag       0.09826371      12.29934377      12.29934445
Ag      12.29934361       0.09826157      12.29934465
Ag      12.29934361      12.29934378       0.09826044
Ag       0.10755700      14.32243593      14.32243669
Ag      12.29778810       2.12821284      14.32033690
Ag      12.29778850      14.32033620       2.12821058
Ag       2.12821372      12.29778854      14.32033658
Ag      14.32243577       0.10755459      14.32243731
Ag      14.32033578      12.29778877       2.12821022
Ag       2.12821351      14.32033571      12.29778949
Ag      14.32033553       2.12821214      12.29778943
Ag      14.32243603      14.32243667       0.10755328
Ag       4.22082546       4.22082541       4.22082598
Ag      20.36497015      20.36497114      20.36497122
Ag      20.37818281      20.37818350       4.22906077
Ag       4.22636650       4.22636675      20.39210521
Ag      20.37818103       4.22906099      20.37818215
Ag       4.22636655      20.39210716       4.22636686
Ag       4.22906175      20.37818082      20.37818109
Ag      20.39210779       4.22636547       4.22636534
Ag       4.20426315       6.24087830       6.24087923
Ag      20.35621170      22.34552466      22.34552523
Ag      20.38250167      22.41970769       6.23241785
Ag       4.21385685       6.23828772      22.43266929
Ag      20.38249969       6.23241768      22.41970790
Ag       4.21385642      22.43267362       6.23828808
Ag       4.21267620      22.35488538      22.35488591
Ag      20.42003346       6.24008017       6.24008026
Ag       6.24087816       4.20426313       6.24087910
Ag      22.34552399      20.35621327      22.34552578
Ag      22.41970737      20.38250302       6.23241759
Ag       6.23828729       4.21385722      22.43266932
Ag      22.35488605       4.21267536      22.35488800
Ag       6.24008125      20.42003231       6.24008179
Ag       6.23241825      20.38249951      22.41970590
Ag      22.43267392       4.21385481       6.23828660
Ag       6.24087830       6.24087832       4.20426356
Ag      22.34552411      22.34552534      20.35621392
Ag      22.35488724      22.35488832       4.21267515
Ag       6.24008080       6.24008117      20.42003020
Ag      22.41970739       6.23241732      20.38250196
Ag       6.23828693      22.43267371       4.21385708
Ag       6.23241814      22.41970578      20.38250011
Ag      22.43267374       6.23828609       4.21385508
Ag       4.20534875       4.20534874       8.26075553
Ag      20.38805347      20.38805436      16.33056579
Ag      20.39543041      20.39543116       8.25322306
Ag       4.21330612       4.21330641      16.32816233
Ag      20.40448347       4.21993430      16.32980258
Ag       4.21241232      20.41358589       8.25854591
Ag       4.21993561      20.40448239      16.32980166
Ag      20.41358717       4.21241074       8.25854480
Ag       8.26075431       4.20534865       4.20534890
Ag      16.33056462      20.38805333      20.38805336
Ag       8.25322303      20.39542845      20.39542853
Ag      16.32816202       4.21330543       4.21330531
Ag      16.32980155      20.40448509       4.21993466
Ag       8.25854463       4.21241230      20.41358431
Ag      16.32980096       4.21993499      20.40448298
Ag       8.25854515      20.41358668       4.21241213
Ag       4.20534895       8.26075444       4.20534925
Ag      20.38805303      16.33056567      20.38805404
Ag      20.39542890       8.25322281      20.39542986
Ag       4.21330646      16.32816140       4.21330667
Ag       4.21993563      16.32980088      20.40448218
Ag      20.41358763       8.25854467       4.21241052
Ag      20.40448512      16.32980218       4.21993405
Ag       4.21241221       8.25854512      20.41358424
Ag       4.18957765       6.23273411      10.27830065
Ag      20.37075176      22.41045285      18.34866395
Ag      20.39204268      22.42690804      10.27316946
Ag       4.21330613       6.24579855      18.36065419
Ag      20.40448334       6.24415768      18.35402578
Ag       4.20119714      22.44350485      10.27634685
Ag       4.21899518      22.41982582      18.35496514
Ag      20.43474865       6.23227676      10.27776937
Ag       8.25987398       6.23033077       6.23033135
Ag      16.34452170      22.36036323      22.36036376
Ag       8.24746495      22.36493378      22.36493423
Ag      16.33851428       6.23544522       6.23544544
Ag      16.34086998      22.44767328       6.23309013
Ag       8.25526840       6.22915350      22.45622905
Ag      16.34086938       6.23308995      22.44767210
Ag       8.25526820      22.45623278       6.22915368
Ag       4.18957786      10.27829944       6.23273500
Ag      20.37075131      18.34866344      22.41045343
Ag      20.39204113      10.27316906      22.42690877
Ag       4.21330643      18.36065399       6.24579944
Ag       4.21899539      18.35496432      22.41982565
Ag      20.43474926      10.27776916       6.23227683
Ag      20.40448497      18.35402598       6.24415805
Ag       4.20119759      10.27634610      22.44350192
Ag       6.23273382       4.18957766      10.27830061
Ag      22.41045251      20.37075319      18.34866431
Ag      22.42690791      20.39204409      10.27316936
Ag       6.24579817       4.21330639      18.36065425
Ag      22.41982753       4.21899379      18.35496677
Ag       6.23227803      20.43474692      10.27777003
Ag       6.24415851      20.40448236      18.35402448
Ag      22.44350679       4.20119510      10.27634632
Ag      10.27829920       4.18957725       6.23273431
Ag      18.34866223      20.37075203      22.41045294
Ag      10.27316900      20.39204092      22.42690666
Ag      18.36065496       4.21330515       6.24579799
Ag      18.35402522      20.40448519       6.24415829
Ag      10.27634581       4.20119751      22.44350251
Ag      18.35496432       4.21899471      22.41982714
Ag      10.27776922      20.43474807       6.23227813
Ag       6.23033075       8.25987438       6.23033162
Ag      22.36036355      16.34452341      22.36036536
Ag      22.36493493       8.24746434      22.36493678
Ag       6.23544611      16.33851383       6.23544697
Ag       6.23309026      16.34086982      22.44767015
Ag      22.45623439       8.25526766       6.22915215
Ag      22.44767407      16.34087155       6.23308931
Ag       6.22915318       8.25526882      22.45622876
Ag       6.23033059       6.23033087       8.25987534
Ag      22.36036370      22.36036487      16.34452423
Ag      22.36493577      22.36493681       8.24746468
Ag       6.23544537       6.23544604      16.33851476
Ag      22.44767399       6.23308891      16.34087206
Ag       6.22915284      22.45623234       8.25526936
Ag       6.23309000      22.44767081      16.34087075
Ag      22.45623449       6.22915167       8.25526825
Ag      10.27829933       6.23273388       4.18957728
Ag      18.34866240      22.41045255      20.37075255
Ag      10.27316897      22.42690654      20.39204148
Ag      18.36065508       6.24579791       4.21330495
Ag      18.35496540      22.41982774       4.21899445
Ag      10.27776861       6.23227769      20.43474560
Ag      18.35402439       6.24415790      20.40448341
Ag      10.27634591      22.44350576       4.20119701
Ag       6.23273425      10.27829950       4.18957789
Ag      22.41045267      18.34866392      20.37075332
Ag      22.42690840      10.27316894      20.39204341
Ag       6.24579886      18.36065419       4.21330646
Ag       6.24415851      18.35402403      20.40448229
Ag      22.44350647      10.27634577       4.20119515
Ag      22.41982774      18.35496669       4.21899379
Ag       6.23227768      10.27776914      20.43474532
Ag       4.20022668       4.20022674      12.29641383
Ag      20.39828842      20.39828921      12.29741239
Ag      20.41786586       4.20797611      12.29903298
Ag       4.20797782      20.41786434      12.29903318
Ag      12.29641253       4.20022616       4.20022612
Ag      12.29741157      20.39828722      20.39828721
Ag      12.29903243      20.41786630       4.20797702
Ag      12.29903174       4.20797739      20.41786385
Ag       4.20022703      12.29641259       4.20022711
Ag      20.39828750      12.29741221      20.39828841
Ag       4.20797778      12.29903223      20.41786338
Ag      20.41786697      12.29903269       4.20797580
Ag       4.19426188       6.23652529      14.31357674
Ag      20.38855354      22.42482440      14.32076146
Ag      20.42945888       6.23621664      14.31649536
Ag       4.20494326      22.44109404      14.32144781
Ag      12.29567031       6.22564965       6.22564997
Ag      12.29893558      22.36634424      22.36634469
Ag      12.29942878      22.45991240       6.22435985
Ag      12.29942849       6.22435977      22.45990999
Ag       4.19426223      14.31357560       6.23652619
Ag      20.38855257      14.32076094      22.42482528
Ag       4.20494366      14.32144688      22.44109270
Ag      20.42946012      14.31649502       6.23621684
Ag       6.23652476       4.19426215      14.31357681
Ag      22.42482428      20.38855503      14.32076160
Ag      22.44109660       4.20494131      14.32144847
Ag       6.23621780      20.42945725      14.31649497
Ag      14.31357549       4.19426108       6.23652490
Ag      14.32075985      20.38855277      22.42482381
Ag      14.31649419      20.42945965       6.23621763
Ag      14.32144640       4.20494317      22.44109401
Ag       6.22565022      12.29567074       6.22565101
Ag      22.36634540      12.29893614      22.36634720
Ag       6.22435978      12.29942884      22.45990880
Ag      22.45991408      12.29942932       6.22435857
Ag       6.22564972       6.22565020      12.29567187
Ag      22.36634577      22.36634684      12.29893676
Ag      22.45991422       6.22435816      12.29942990
Ag       6.22435944      22.45991081      12.29942974
Ag      14.31357558       6.23652468       4.19426090
Ag      14.32075993      22.42482358      20.38855328
Ag      14.32144700      22.44109594       4.20494261
Ag      14.31649365       6.23621725      20.42945726
Ag       6.23652543      14.31357573       4.19426226
Ag      22.42482481      14.32076113      20.38855480
Ag       6.23621765      14.31649413      20.42945644
Ag      22.44109653      14.32144799       4.20494126
Ag       4.18482253       8.25747654       8.25747759
Ag      20.42003234      16.33387968      16.33387984
Ag      20.42945988      16.33774338       8.25746547
Ag       4.19426192       8.26038436      16.33743544
Ag      20.42945866       8.25746519      16.33774367
Ag       4.19426223      16.33743452       8.26038547
Ag       4.20426339      16.33308093      16.33308187
Ag      20.44153173       8.25510853       8.25510864
Ag       8.25747607       4.18482225       8.25747732
Ag      16.33387850      20.42003229      16.33387944
Ag       8.25746548      20.42945721      16.33774265
Ag      16.33743510       4.19426080       8.26038444
Ag      16.33774235      20.42945968       8.25746585
Ag       8.26038357       4.19426207      16.33743566