63
Properties=species:S:1:pos:R:3 Geometry=T Step:=T 23=T pbc="F F F"
Pt       0.41490312       0.41490310       0.41490309
Pt       0.30880595       0.30880594       4.10435623
Pt       0.41490325       0.41490323       7.79380926
Pt       0.30880594       4.10435622       0.30880593
Pt       0.07510728       4.10435619       4.10435619
Pt       0.30880595       4.10435616       7.89990649
Pt       0.41490321       7.79380926       0.41490318
Pt       0.30880592       7.89990649       4.10435617
Pt       0.41490313       7.79380934       7.79380937
Pt       4.10435623       0.30880593       0.30880593
Pt       4.10435618       0.07510728       4.10435619
Pt       4.10435617       0.30880594       7.89990648
Pt       4.10435618       4.10435619       0.07510727
Pt       4.10435616       4.10435617       8.13360516
Pt       4.10435616       7.89990650       0.30880590
Pt       4.10435616       8.13360519       4.10435617
Pt       4.10435621       7.89990653       7.89990656
Pt       7.79380925       0.41490320       0.41490320
Pt       7.89990648       0.30880591       4.10435617
Pt       7.79380933       0.41490312       7.79380936
Pt       7.89990650       4.10435616       0.30880590
Pt       8.13360519       4.10435617       4.10435617
Pt       7.89990654       4.10435620       7.89990656
Pt       7.79380937       7.79380937       0.41490308
Pt       7.89990657       7.89990656       4.10435621
Pt       7.79380930       7.79380930       7.79380933
Pt       0.18770445       2.18768602       2.18768603
Pt       0.18770449       2.18768601       6.02102639
Pt       0.18770446       6.02102638       2.18768601
Pt       0.18770444       6.02102636       6.02102637
Pt       8.02100796       2.18768602       2.18768603
Pt       8.02100800       2.18768603       6.02102633
Pt       8.02100802       6.02102632       2.18768603
Pt       8.02100804       6.02102632       6.02102634
Pt       2.18768603       0.18770445       2.18768603
Pt       2.18768602       0.18770448       6.02102638
Pt       2.18768602       8.02100797       2.18768602
Pt       2.18768602       8.02100800       6.02102634
Pt       6.02102637       0.18770446       2.18768602
Pt       6.02102634       0.18770444       6.02102635
Pt       6.02102632       8.02100802       2.18768603
Pt       6.02102632       8.02100804       6.02102634
Pt       2.18768603       2.18768603       0.18770445
Pt       2.18768604       2.18768603       8.02100794
Pt       2.18768601       6.02102637       0.18770446
Pt       2.18768603       6.02102632       8.02100800
Pt       6.02102636       2.18768602       0.18770446
Pt       6.02102631       2.18768604       8.02100800
Pt       6.02102635       6.02102634       0.18770441
Pt       6.02102632       6.02102631       8.02100804
Ag       4.10435615       4.10435617       4.10435616
Ag       4.10435618       2.19150589       2.19150589
Ag       4.10435617       2.19150589       6.01720647
Ag       4.10435617       6.01720649       2.19150589
Ag       4.10435617       6.01720647       6.01720646
Ag       2.19150587       4.10435619       2.19150589
Ag       2.19150587       4.10435618       6.01720648
Ag       6.01720648       4.10435618       2.19150589
Ag       6.01720647       4.10435618       6.01720646
Ag       2.19150587       2.19150589       4.10435619
Ag       2.19150587       6.01720649       4.10435618
Ag       6.01720648       2.19150588       4.10435618
Ag       6.01720647       6.01720647       4.10435617
