63
Properties=species:S:1:pos:R:3 Geometry=T Step:=T 20=T pbc="F F F"
Ag       0.15019673       0.15019673       0.15019673
Ag       0.15604876       0.15604876       4.10435617
Ag       0.15019668       0.15019668       8.05851581
Ag       0.15604876       4.10435617       0.15604876
Ag       0.03237577       4.10435618       4.10435618
Ag       0.15604866       4.10435618       8.05266373
Ag       0.15019668       8.05851581       0.15019668
Ag       0.15604866       8.05266373       4.10435618
Ag       0.15019669       8.05851583       8.05851583
Ag       4.10435617       0.15604876       0.15604876
Ag       4.10435618       0.03237577       4.10435618
Ag       4.10435618       0.15604866       8.05266373
Ag       4.10435618       4.10435618       0.03237577
Ag       4.10435618       4.10435618       8.17633673
Ag       4.10435618       8.05266373       0.15604866
Ag       4.10435618       8.17633673       4.10435618
Ag       4.10435620       8.05266378       8.05266378
Ag       8.05851581       0.15019668       0.15019668
Ag       8.05266373       0.15604866       4.10435618
Ag       8.05851583       0.15019669       8.05851583
Ag       8.05266373       4.10435618       0.15604866
Ag       8.17633673       4.10435618       4.10435618
Ag       8.05266378       4.10435620       8.05266378
Ag       8.05851583       8.05851583       0.15019669
Ag       8.05266378       8.05266378       4.10435620
Ag       8.05851578       8.05851578       8.05851578
Ag       0.09472271       2.11950560       2.11950560
Ag       0.09472264       2.11950558       6.08920679
Ag       0.09472264       6.08920679       2.11950558
Ag       0.09472258       6.08920679       6.08920679
Ag       8.11398981       2.11950560       2.11950560
Ag       8.11398985       2.11950560       6.08920676
Ag       8.11398985       6.08920676       2.11950560
Ag       8.11398989       6.08920675       6.08920675
Ag       2.11950560       0.09472271       2.11950560
Ag       2.11950558       0.09472264       6.08920679
Ag       2.11950560       8.11398981       2.11950560
Ag       2.11950560       8.11398985       6.08920676
Ag       6.08920679       0.09472264       2.11950558
Ag       6.08920679       0.09472258       6.08920679
Ag       6.08920676       8.11398985       2.11950560
Ag       6.08920675       8.11398989       6.08920675
Ag       2.11950560       2.11950560       0.09472271
Ag       2.11950560       2.11950560       8.11398981
Ag       2.11950558       6.08920679       0.09472264
Ag       2.11950560       6.08920676       8.11398985
Ag       6.08920679       2.11950558       0.09472264
Ag       6.08920676       2.11950560       8.11398985
Ag       6.08920679       6.08920679       0.09472258
Ag       6.08920675       6.08920675       8.11398989
Pt       4.10435615       4.10435615       4.10435615
Pt       4.10435614       2.17674013       2.17674013
Pt       4.10435613       2.17674009       6.03197220
Pt       4.10435613       6.03197220       2.17674009
Pt       4.10435613       6.03197221       6.03197221
Pt       2.17674013       4.10435614       2.17674013
Pt       2.17674009       4.10435613       6.03197220
Pt       6.03197220       4.10435613       2.17674009
Pt       6.03197221       4.10435613       6.03197221
Pt       2.17674013       2.17674013       4.10435614
Pt       2.17674009       6.03197220       4.10435613
Pt       6.03197220       2.17674009       4.10435613
Pt       6.03197221       6.03197221       4.10435613
