63
Properties=species:S:1:pos:R:3 Geometry=T Step:=T 28=T pbc="F F F"
Pt       0.43115467       0.43115494       0.43115475
Pt       0.36579313       0.36579356       4.10435607
Pt       0.43115419       0.43115457       7.77755816
Pt       0.36579458       4.10435702       0.36579472
Pt       0.25278365       4.10435760       4.10435611
Pt       0.36579438       4.10435726       7.84291786
Pt       0.43115677       7.77755610       0.43115695
Pt       0.36579727       7.84291579       4.10435631
Pt       0.43115710       7.77755583       7.77755531
Pt       4.10435591       0.36579352       0.36579324
Pt       4.10435566       0.25278117       4.10435579
Pt       4.10435581       0.36579250       7.84292017
Pt       4.10435569       4.10435730       0.25278311
Pt       4.10435512       4.10435857       4.10435581
Pt       4.10435552       4.10435776       7.95592984
Pt       4.10435584       7.84291659       0.36579661
Pt       4.10435554       7.95592652       4.10435625
Pt       4.10435575       7.84291640       7.84291559
Pt       7.77755828       0.43115420       0.43115400
Pt       7.84292025       0.36579216       4.10435598
Pt       7.77755888       0.43115365       7.77755903
Pt       7.84291874       4.10435696       0.36579339
Pt       7.95593065       4.10435747       4.10435593
Pt       7.84291938       4.10435720       7.84291963
Pt       7.77755624       7.77755690       0.43115611
Pt       7.84291644       7.84291751       4.10435622
Pt       7.77755620       7.77755697       7.77755644
Pt       0.26715808       2.23223914       2.23223857
Pt       0.26715779       2.23223932       5.97647361
Pt       0.26715984       5.97647443       2.23223915
Pt       0.26715996       5.97647459       5.97647337
Pt       4.10435578       2.20492279       2.20492219
Pt       4.10435576       2.20492289       6.00378984
Pt       4.10435578       6.00379083       2.20492270
Pt       4.10435566       6.00379100       6.00378960
Pt       7.94155522       2.23223889       2.23223828
Pt       7.94155561       2.23223889       5.97647387
Pt       7.94155349       5.97647470       2.23223870
Pt       7.94155373       5.97647478       5.97647353
Pt       2.23223833       0.26715779       2.23223831
Pt       2.23223828       0.26715725       5.97647373
Pt       2.20492249       4.10435726       2.20492257
Pt       2.20492242       4.10435749       6.00378965
Pt       2.23223901       7.94155199       2.23223934
Pt       2.23223896       7.94155175       5.97647325
Pt       5.97647365       0.26715725       2.23223822
Pt       5.97647375       0.26715675       5.97647387
Pt       6.00378950       4.10435726       2.20492239
Pt       6.00378947       4.10435739       6.00378972
Pt       5.97647299       7.94155255       2.23223909
Pt       5.97647283       7.94155255       5.97647329
Pt       2.23223847       2.23223901       0.26715812
Pt       2.20492226       2.20492292       4.10435594
Pt       2.23223837       2.23223927       7.94155492
Pt       2.23223883       5.97647443       0.26715965
Pt       2.20492259       6.00379087       4.10435617
Pt       2.23223873       5.97647470       7.94155262
Pt       5.97647353       2.23223895       0.26715760
Pt       6.00378972       2.20492277       4.10435592
Pt       5.97647361       2.23223904       7.94155554
Pt       5.97647325       5.97647456       0.26715920
Pt       6.00378931       6.00379094       4.10435606
Pt       5.97647306       5.97647475       7.94155343
