38
Properties=species:S:1:pos:R:3 Geometry=T Step:=T 14=T pbc="F F F"
Pt      -1.93899535       0.00000018      -0.00000001
Pt       0.00000008      -1.93899525      -0.00000001
Pt       0.00000008       0.00000018      -1.93899543
Pt       0.00000008       0.00000018       1.93899540
Pt       0.00000008       1.93899558      -0.00000001
Pt       1.93899548       0.00000018      -0.00000001
Ag      -3.98626165      -1.98607831      -0.00000000
Ag      -3.98626155       0.00000002      -1.98607828
Ag      -3.98626157       0.00000002       1.98607828
Ag      -3.98626147       1.98607825      -0.00000000
Ag      -1.98607834      -3.98626168      -0.00000000
Ag       0.00000001      -3.98626164      -1.98607833
Ag       0.00000001      -3.98626165       1.98607833
Ag      -1.98607825       0.00000002      -3.98626153
Ag       0.00000001      -1.98607826      -3.98626158
Ag      -2.03854221      -2.03854216      -2.03854225
Ag      -2.03854222      -2.03854217       2.03854225
Ag      -1.98607826       0.00000002       3.98626155
Ag       0.00000001      -1.98607828       3.98626160
Ag       0.00000001       1.98607821      -3.98626140
Ag      -2.03854208       2.03854219      -2.03854212
Ag      -1.98607816       3.98626139      -0.00000000
Ag       0.00000001       3.98626135      -1.98607815
Ag      -2.03854209       2.03854220       2.03854211
Ag       0.00000001       1.98607822       3.98626142
Ag       0.00000001       3.98626136       1.98607815
Ag       1.98607832      -3.98626161      -0.00000000
Ag       1.98607822       0.00000002      -3.98626146
Ag       2.03854222      -2.03854211      -2.03854220
Ag       3.98626153      -1.98607823      -0.00000000
Ag       3.98626144       0.00000002      -1.98607820
Ag       2.03854223      -2.03854212       2.03854219
Ag       1.98607824       0.00000002       3.98626148
Ag       3.98626145       0.00000002       1.98607821
Ag       2.03854209       2.03854214      -2.03854206
Ag       1.98607814       3.98626132      -0.00000000
Ag       3.98626136       1.98607817      -0.00000000
Ag       2.03854210       2.03854215       2.03854206
