38
Properties=species:S:1:pos:R:3 Geometry=T Step:=T 9=T pbc="F F F"
Ag      -4.00596970      -2.00103838       0.00000003
Ag      -4.00596978      -0.00000003      -2.00103838
Ag      -4.00596971      -0.00000003       2.00103838
Ag      -4.00596978       2.00103838       0.00000003
Ag      -2.00103829      -4.00596965       0.00000003
Ag       0.00000002      -4.00596966      -2.00103829
Ag       0.00000002      -4.00596959       2.00103829
Ag      -2.00103839      -0.00000003      -4.00596978
Ag       0.00000002      -2.00103839      -4.00596971
Ag      -2.04189101      -2.04189107      -2.04189100
Ag      -2.02059442      -0.00000005       0.00000004
Ag       0.00000004      -2.02059442       0.00000004
Ag       0.00000004      -0.00000005      -2.02059442
Ag      -2.04189096      -2.04189102       2.04189102
Ag      -2.00103829      -0.00000003       4.00596966
Ag       0.00000002      -2.00103830       4.00596959
Ag       0.00000004      -0.00000005       2.02059442
Ag       0.00000002       2.00103838      -4.00596979
Ag      -2.04189107       2.04189106      -2.04189106
Ag      -2.00103839       4.00596979       0.00000003
Ag       0.00000004       2.02059442       0.00000004
Ag       0.00000002       4.00596979      -2.00103839
Ag      -2.04189102       2.04189101       2.04189108
Ag       0.00000002       2.00103829       4.00596967
Ag       0.00000002       4.00596972       2.00103840
Ag       2.00103829      -4.00596959       0.00000003
Ag       2.00103839      -0.00000003      -4.00596972
Ag       2.04189102      -2.04189103      -2.04189096
Ag       2.02059442      -0.00000005       0.00000004
Ag       4.00596960      -2.00103831       0.00000003
Ag       4.00596968      -0.00000003      -2.00103830
Ag       2.04189097      -2.04189098       2.04189098
Ag       2.00103830      -0.00000003       4.00596960
Ag       4.00596960      -0.00000003       2.00103831
Ag       2.04189108       2.04189102      -2.04189102
Ag       2.00103839       4.00596973       0.00000003
Ag       4.00596968       2.00103830       0.00000003
Ag       2.04189103       2.04189097       2.04189103
